# vtk DataFile Version 2.0
Func
ASCII
DATASET RECTILINEAR_GRID
DIMENSIONS 31 31 31
X_COORDINATES 31 double
-9.67742
-9.03226
-8.3871
-7.74194
-7.09677
-6.45161
-5.80645
-5.16129
-4.51613
-3.87097
-3.22581
-2.58065
-1.93548
-1.29032
-0.645161
0
0.645161
1.29032
1.93548
2.58065
3.22581
3.87097
4.51613
5.16129
5.80645
6.45161
7.09677
7.74194
8.3871
9.03226
9.67742
Y_COORDINATES 31 double
-9.67742
-9.03226
-8.3871
-7.74194
-7.09677
-6.45161
-5.80645
-5.16129
-4.51613
-3.87097
-3.22581
-2.58065
-1.93548
-1.29032
-0.645161
0
0.645161
1.29032
1.93548
2.58065
3.22581
3.87097
4.51613
5.16129
5.80645
6.45161
7.09677
7.74194
8.3871
9.03226
9.67742
Z_COORDINATES 31 double
-9.67742
-9.03226
-8.3871
-7.74194
-7.09677
-6.45161
-5.80645
-5.16129
-4.51613
-3.87097
-3.22581
-2.58065
-1.93548
-1.29032
-0.645161
0
0.645161
1.29032
1.93548
2.58065
3.22581
3.87097
4.51613
5.16129
5.80645
6.45161
7.09677
7.74194
8.3871
9.03226
9.67742
POINT_DATA 29791
SCALARS data double 1
LOOKUP_TABLE default
0.0226919
0.0329132
0.0450805
0.0588623
0.0738176
0.0892447
0.104267
0.117889
0.129262
0.137459
0.141718
0.141523
0.136666
0.12728
0.113827
0.0970591
0.0779531
0.05762
0.0372068
0.0178004
0.000342576
-0.0144356
-0.0260562
-0.0343053
-0.0392171
-0.0408774
-0.0397205
-0.0362711
-0.0312602
-0.0252974
-0.0189057
0.0303723
0.0445423
0.0616693
0.081344
0.102934
0.125467
0.147608
0.167823
0.184786
0.197084
0.203556
0.203426
0.196392
0.182676
0.163007
0.138551
0.110805
0.0814528
0.0522125
0.0246854
0.000225876
-0.0201547
-0.035844
-0.0466373
-0.0526975
-0.0542778
-0.0521435
-0.047114
-0.0401812
-0.0322424
-0.0238554
0.0318934
0.0476395
0.0671433
0.0900399
0.115587
0.142667
0.169585
0.19443
0.215456
0.23087
0.239203
0.239482
0.231345
0.215099
0.191693
0.162625
0.129793
0.0953075
0.0612886
0.0296725
0.00204612
-0.0204702
-0.0372792
-0.0483042
-0.053918
-0.0546595
-0.0515634
-0.0457546
-0.0382938
-0.0301896
-0.0219024
0.0241854
0.0379446
0.0558866
0.0778443
0.103131
0.130634
0.15859
0.184933
0.207623
0.224679
0.234473
0.235929
0.228652
0.212989
0.189994
0.161313
0.129014
0.0953626
0.0625959
0.0327016
0.00723799
-0.0127872
-0.0269624
-0.035448
-0.0388741
-0.0381364
-0.0344806
-0.0291317
-0.0230488
-0.0171304
-0.0115538
0.00715252
0.0152749
0.027543
0.0442073
0.0648061
0.0884833
0.113639
0.138319
0.160351
0.177769
0.188938
0.192761
0.188806
0.177371
0.159441
0.136577
0.110721
0.0839837
0.0584022
0.0357264
0.0172425
0.00366291
-0.00489708
-0.00887315
-0.00912418
-0.00687037
-0.00342243
3.5107e-05
0.00287834
0.00449853
0.00513292
-0.0167412
-0.0169973
-0.0134257
-0.00524729
0.00745405
0.0242682
0.0439624
0.0649107
0.0849313
0.102222
0.115235
0.122875
0.124628
0.120618
0.111581
0.0987483
0.0836824
0.068068
0.0535031
0.0413007
0.0323377
0.0269649
0.025006
0.0258193
0.0284355
0.0314509
0.0336604
0.0340827
0.0325479
0.0288389
0.0236243
-0.0435559
-0.0534677
-0.0600205
-0.0618724
-0.0586351
-0.0501524
-0.0371629
-0.0208301
-0.00324909
0.0140245
0.0295676
0.0422753
0.0514769
0.0570015
0.0591621
0.0586757
0.0565224
0.0537843
0.0514772
0.050392
0.0509758
0.0532667
0.0569068
0.0612054
0.0652677
0.0677331
0.0676742
0.0644406
0.0583331
0.0495224
0.0390615
-0.0681516
-0.0870522
-0.103088
-0.114394
-0.12011
-0.119502
-0.112798
-0.100675
-0.0850893
-0.0673425
-0.0487461
-0.0304553
-0.0133611
0.00198505
0.0153811
0.0269346
0.0369684
0.0459153
0.054204
0.0621476
0.0698597
0.0772089
0.0838337
0.0891901
0.0926513
0.093148
0.0901508
0.0834007
0.0735737
0.0611248
0.0473439
-0.086166
-0.111757
-0.134926
-0.153393
-0.16592
-0.171292
-0.169308
-0.160236
-0.145877
-0.127322
-0.105808
-0.0825719
-0.0587433
-0.0352601
-0.0128275
0.00808543
0.0272033
0.0443956
0.059617
0.0728412
0.0840073
0.0929851
0.0995794
0.10355
0.104668
0.102335
0.0964519
0.0871271
0.0752447
0.0613812
0.046894
-0.0951637
-0.124193
-0.151141
-0.173461
-0.189706
-0.198363
-0.198967
-0.191538
-0.177744
-0.158547
-0.135156
-0.108884
-0.0810539
-0.052895
-0.0254783
0.000321898
0.0238275
0.0445525
0.0621831
0.0765453
0.0875693
0.0952572
0.0996691
0.100911
0.0991536
0.0942954
0.0865756
0.0763563
0.0645363
0.0516443
0.0389705
-0.09536
-0.124563
-0.151887
-0.174677
-0.191478
-0.200706
-0.201848
-0.194887
-0.181428
-0.162408
-0.13904
-0.112678
-0.0847198
-0.0564919
-0.0291802
-0.00377347
0.018954
0.0384549
0.0544035
0.0666737
0.0753067
0.0804731
0.0824433
0.081554
0.0782055
0.0726154
0.0651461
0.0562157
0.0465709
0.0365663
0.0273793
-0.0892147
-0.116112
-0.141158
-0.161725
-0.176541
-0.18418
-0.18431
-0.177106
-0.164231
-0.14671
-0.125789
-0.102794
-0.0790254
-0.0556495
-0.0336363
-0.0137191
0.00360396
0.018061
0.0295792
0.038245
0.0442555
0.0478721
0.0493864
0.04909
0.0472845
0.0441266
0.0397838
0.0344786
0.0287002
0.0225781
0.0172461
-0.0801205
-0.10336
-0.124546
-0.141195
-0.15236
-0.156962
-0.155076
-0.147287
-0.135486
-0.120899
-0.104837
-0.0885191
-0.0729636
-0.0588927
-0.0467037
-0.0364815
-0.0280613
-0.021104
-0.0151857
-0.00988964
-0.0048873
3.95297e-06
0.00480295
0.00936934
0.0134741
0.0166942
0.0186303
0.0190409
0.0181245
0.015812
0.0133678
-0.0708443
-0.0900035
-0.106632
-0.118471
-0.124988
-0.125597
-0.120972
-0.112307
-0.101907
-0.0913235
-0.0819673
-0.0748917
-0.0706692
-0.0693211
-0.0703465
-0.0728231
-0.0755732
-0.0773501
-0.0770302
-0.0737875
-0.0672264
-0.0574483
-0.0450325
-0.0309614
-0.0164419
-0.00302776
0.00795443
0.0155539
0.0197066
0.0202223
0.0187367
-0.0624855
-0.0775245
-0.0892669
-0.0957187
-0.0968205
-0.0925682
-0.0843905
-0.0742517
-0.0650526
-0.0587815
-0.0570032
-0.0605784
-0.0695256
-0.0829794
-0.0992977
-0.116278
-0.131462
-0.14247
-0.147325
-0.144738
-0.134308
-0.116596
-0.0930478
-0.0658253
-0.0374758
-0.0111459
0.0106272
0.0260015
0.0347119
0.0365375
0.0337329
-0.0544699
-0.0652033
-0.0716186
-0.0720056
-0.0668004
-0.0566343
-0.0437925
-0.0311232
-0.0222479
-0.0196889
-0.0252237
-0.0395351
-0.0620518
-0.0909376
-0.123287
-0.155471
-0.183604
-0.204042
-0.213863
-0.21128
-0.195911
-0.168867
-0.132607
-0.0906542
-0.0470942
-0.00693583
0.0259202
0.0486525
0.0608629
0.0623676
0.0562384
-0.0455197
-0.0514366
-0.0518607
-0.0453525
-0.0328481
-0.0156257
0.00314285
0.0196829
0.0296089
0.0298136
0.0182555
-0.00561735
-0.0406834
-0.0841656
-0.131913
-0.17888
-0.21975
-0.249607
-0.26457
-0.262338
-0.242531
-0.206797
-0.158598
-0.102808
-0.045042
0.00780853
0.0504893
0.0792214
0.0935338
0.0933088
0.0825424
-0.0349911
-0.0355443
-0.029434
-0.0154495
0.00500002
0.0300262
0.0556347
0.0771761
0.0895607
0.0891125
0.0735052
0.0422563
-0.00306446
-0.0588767
-0.119945
-0.179975
-0.232379
-0.271097
-0.291371
-0.290413
-0.267808
-0.225641
-0.168221
-0.101585
-0.0326647
0.0299933
0.0799539
0.112615
0.127486
0.124512
0.108613
-0.0237545
-0.0189384
-0.0064796
0.0146719
0.0427081
0.0752317
0.107594
0.134439
0.150132
0.150531
0.133054
0.0972358
0.0449527
-0.0196328
-0.090484
-0.160372
-0.221746
-0.267673
-0.292716
-0.293688
-0.27012
-0.224386
-0.161402
-0.0880421
-0.0121956
0.0563572
0.110312
0.144473
0.158386
0.152048
0.131205
-0.0140352
-0.00487351
0.0125385
0.0391707
0.072949
0.111136
0.148695
0.179845
0.198653
0.200694
0.183227
0.145778
0.0903814
0.0215131
-0.0543521
-0.12947
-0.195759
-0.245799
-0.273774
-0.276274
-0.252796
-0.205876
-0.140759
-0.0647834
0.0136451
0.0840409
0.138627
0.171912
0.183543
0.173577
0.148413
-0.00822785
0.00319867
0.0229769
0.0520634
0.0882965
0.128819
0.168541
0.201617
0.222117
0.22559
0.209287
0.172747
0.118033
0.0496655
-0.025831
-0.100661
-0.1667
-0.216499
-0.244237
-0.246526
-0.222909
-0.175997
-0.111127
-0.0357332
0.0416955
0.110513
0.162893
0.193359
0.201747
0.188205
0.159566
-0.00734356
0.00377536
0.0227778
0.0506313
0.0852742
0.12396
0.161886
0.193535
0.213296
0.216985
0.202039
0.168074
0.117102
0.0534579
-0.016631
-0.0857542
-0.146216
-0.190996
-0.214653
-0.214092
-0.189032
-0.142126
-0.0786223
-0.00575156
0.0682879
0.133173
0.18141
0.20783
0.212533
0.195808
0.164688
-0.00998774
-0.00128182
0.0142934
0.037674
0.0670421
0.0999487
0.132164
0.158839
0.174991
0.176981
0.162639
0.131753
0.0862592
0.0301614
-0.0308711
-0.0901509
-0.140791
-0.176577
-0.192776
-0.186829
-0.158759
-0.111267
-0.0493934
0.0200486
0.08943
0.149127
0.192281
0.214248
0.215441
0.196335
0.163921
-0.0126308
-0.00709101
0.0038631
0.0210286
0.0428882
0.0673919
0.0910531
0.109921
0.119904
0.118127
0.102987
0.0745552
0.0347192
-0.0129103
-0.0633597
-0.110863
-0.149577
-0.174325
-0.181298
-0.168628
-0.13673
-0.0883495
-0.028251
0.0373131
0.10146
0.155525
0.193472
0.211315
0.209771
0.189506
0.157242
-0.0111727
-0.00786542
-0.000864718
0.0103411
0.0244947
0.0399397
0.0539746
0.0636305
0.0658827
0.0587438
0.0412915
0.0139674
-0.0213386
-0.061393
-0.101941
-0.138191
-0.165408
-0.179532
-0.177733
-0.158878
-0.123775
-0.0751895
-0.0175436
0.0435555
0.102067
0.150435
0.183531
0.198059
0.194972
0.175083
0.14463
-0.00295086
0.000326738
0.00552545
0.0127343
0.020844
0.0285035
0.0337198
0.0344469
0.0287971
0.0156779
-0.00512894
-0.0327754
-0.0653213
-0.0998563
-0.132782
-0.160215
-0.178459
-0.184492
-0.176391
-0.153671
-0.117459
-0.0704638
-0.0167
0.0389252
0.0912477
0.13389
0.162616
0.174787
0.171469
0.153535
0.126556
0.0109957
0.0165014
0.0223327
0.0281117
0.0327634
0.0351271
0.0337772
0.0274298
0.0152635
-0.00303083
-0.027052
-0.055595
-0.0866762
-0.117669
-0.145548
-0.167218
-0.179871
-0.181355
-0.170477
-0.147239
-0.112937
-0.0701049
-0.0222626
0.0264289
0.0716908
0.108336
0.132964
0.143516
0.141034
0.12634
0.104185
0.0267753
0.0356917
0.0437482
0.0501231
0.0537189
0.0534735
0.0483831
0.0377235
0.0215404
0.000110179
-0.0257207
-0.0545183
-0.0843262
-0.112805
-0.137442
-0.155805
-0.165808
-0.165971
-0.155626
-0.135064
-0.105578
-0.0693946
-0.0294573
0.0108556
0.0481411
0.0783703
0.0989018
0.10817
0.107078
0.0963018
0.0797057
0.0379313
0.0494653
0.0594475
0.0668535
0.0705887
0.0697385
0.0635491
0.0516731
0.0347167
0.013284
-0.0115812
-0.0384246
-0.0654667
-0.0907326
-0.112221
-0.128094
-0.136858
-0.137537
-0.1298
-0.114044
-0.091401
-0.0636651
-0.0331221
-0.00233536
0.0261582
0.0494334
0.0655426
0.0733634
0.0735765
0.0666695
0.0555923
0.0396809
0.0515303
0.0617131
0.0692144
0.0730898
0.0725043
0.0670624
0.0565982
0.041914
0.0236867
0.00290637
-0.0191745
-0.0411212
-0.0614264
-0.078631
-0.0914538
-0.0989039
-0.100384
-0.0957633
-0.08541
-0.070184
-0.0513758
-0.0305816
-0.0095594
0.00997901
0.0261158
0.0375579
0.0435118
0.0444657
0.0407062
0.0343241
0.0320316
0.0415454
0.0497557
0.0558176
0.0590835
0.0589021
0.0550729
0.0476102
0.0371913
0.0243708
0.00989664
-0.00534024
-0.0203649
-0.0341956
-0.0459196
-0.0547667
-0.0601696
-0.061816
-0.0596797
-0.0540308
-0.0454198
-0.034636
-0.0226314
-0.0104363
0.00096277
0.0105053
0.017428
0.0212647
0.0223199
0.0207015
0.0177788
0.0286486
0.0421443
0.0584654
0.0772803
0.0979771
0.119628
0.140949
0.160453
0.176843
0.188736
0.194987
0.194817
0.187906
0.174438
0.15509
0.130972
0.103525
0.0743857
0.0452378
0.0176706
-0.00694984
-0.0275774
-0.0435459
-0.0545829
-0.0607823
-0.0622921
-0.0598183
-0.0541765
-0.0463906
-0.0373618
-0.0278487
0.0385709
0.0573326
0.0803687
0.1072
0.136982
0.168443
0.199639
0.228299
0.252451
0.270023
0.279309
0.279164
0.269144
0.24957
0.221509
0.186666
0.147228
0.105644
0.0644049
0.0258161
-0.00819081
-0.0361992
-0.0573836
-0.071518
-0.0789101
-0.0799688
-0.0759185
-0.0680134
-0.0575959
-0.0459394
-0.0338612
0.0414323
0.0626319
0.0892457
0.120793
0.156275
0.194197
0.2321
0.267182
0.296887
0.318619
0.330258
0.330407
0.318564
0.295202
0.261728
0.220341
0.17381
0.125197
0.0775537
0.0336422
-0.00430723
-0.0347642
-0.0569715
-0.0709326
-0.077298
-0.0769458
-0.0714964
-0.0626531
-0.051826
-0.0404124
-0.0290592
0.0332707
0.0525082
0.0777604
0.108719
0.144428
0.183334
0.222859
0.260003
0.291828
0.315497
0.328706
0.329962
0.318769
0.295708
0.262382
0.221242
0.175322
0.127916
0.0822366
0.0410969
0.00664868
-0.0197876
-0.0377755
-0.0477148
-0.0506772
-0.0481405
-0.0420285
-0.0341664
-0.0258317
-0.0182288
-0.0115432
0.0133233
0.025883
0.0443795
0.0689403
0.0988821
0.132906
0.168646
0.203311
0.233823
0.257414
0.271832
0.275619
0.268302
0.25046
0.223662
0.190277
0.153196
0.1155
0.0801112
0.0494759
0.0253143
0.00847081
-0.0011033
-0.00426374
-0.00246644
0.00224354
0.00786137
0.0126425
0.0157638
0.0164753
0.0152674
-0.0156233
-0.0133925
-0.00572737
0.00808412
0.0278381
0.0527285
0.0808979
0.110084
0.137252
0.159923
0.176036
0.18422
0.183961
0.175671
0.160621
0.140769
0.118493
0.0962838
0.0764324
0.0607395
0.0503027
0.0454016
0.0455161
0.0494395
0.0555067
0.061315
0.0650276
0.0652118
0.0616522
0.0541883
0.0440008
-0.0488239
-0.0588083
-0.0640794
-0.063305
-0.0560715
-0.0425246
-0.0238259
-0.00150408
0.0215897
0.0433855
0.0620736
0.0763453
0.085543
0.0897269
0.0896268
0.086508
0.0819481
0.0775901
0.0748905
0.0748869
0.0780355
0.0841339
0.0923633
0.101408
0.109673
0.114756
0.115233
0.110154
0.0999339
0.084982
0.0670488
-0.0796377
-0.101156
-0.118717
-0.130413
-0.1352
-0.132526
-0.122829
-0.106873
-0.0872581
-0.0656396
-0.0436053
-0.0224704
-0.00314276
0.0139506
0.0288498
0.0419833
0.0540128
0.0656647
0.0775588
0.090044
0.103089
0.116238
0.12865
0.139207
0.146683
0.149078
0.145544
0.135686
0.120415
0.100544
0.0781173
-0.102195
-0.132338
-0.159183
-0.180383
-0.194378
-0.200018
-0.197138
-0.185865
-0.168534
-0.146468
-0.121104
-0.0938307
-0.0658561
-0.0381239
-0.0112851
0.0142869
0.0384145
0.0610313
0.0820895
0.101463
0.118883
0.133907
0.145947
0.154333
0.158419
0.156915
0.149583
0.136528
0.118931
0.0977609
0.075036
-0.113199
-0.147726
-0.179433
-0.205711
-0.224706
-0.234881
-0.235712
-0.226948
-0.210714
-0.188137
-0.160596
-0.129577
-0.096551
-0.0628664
-0.0296883
0.00203939
0.0315746
0.0583572
0.0819751
0.102117
0.118535
0.131011
0.139364
0.143454
0.14324
0.138215
0.128617
0.114868
0.0981588
0.0793562
0.0602103
-0.113036
-0.147689
-0.179755
-0.206538
-0.226161
-0.236985
-0.238434
-0.230219
-0.214382
-0.192026
-0.164559
-0.13354
-0.100561
-0.0671267
-0.0345746
-0.00401324
0.0236849
0.0478897
0.0682002
0.0844136
0.0964878
0.1045
0.108625
0.109107
0.106274
0.100166
0.0911845
0.0797855
0.0669384
0.0532276
0.0400452
-0.105303
-0.136951
-0.165937
-0.189622
-0.206359
-0.214695
-0.214339
-0.205316
-0.189794
-0.169044
-0.144571
-0.117943
-0.0906578
-0.0640268
-0.0391019
-0.0166368
0.00289596
0.0192804
0.032511
0.0427346
0.050187
0.0551345
0.0578404
0.0585402
0.0574638
0.054635
0.050177
0.044231
0.037391
0.0299006
0.0229057
-0.0949245
-0.122061
-0.146088
-0.164513
-0.176109
-0.179869
-0.176096
-0.16546
-0.150535
-0.132953
-0.114388
-0.0963296
-0.079943
-0.0659554
-0.0546353
-0.0458249
-0.0390454
-0.0336184
-0.0288044
-0.0239388
-0.0185471
-0.012423
-0.0056439
0.00145155
0.00836613
0.014325
0.0186586
0.0208304
0.0210037
0.019141
0.0164357
-0.0858317
-0.108282
-0.12675
-0.138929
-0.144139
-0.142008
-0.1337
-0.120822
-0.106657
-0.0933955
-0.0829509
-0.0766722
-0.0751694
-0.0782317
-0.084885
-0.0935493
-0.102295
-0.109126
-0.112271
-0.110443
-0.103031
-0.0901988
-0.0728499
-0.0525045
-0.0310463
-0.0108923
0.0059997
0.0180904
0.0251382
0.0269635
0.0252086
-0.0793456
-0.0974304
-0.110227
-0.115628
-0.113564
-0.104431
-0.0904613
-0.0744273
-0.0606076
-0.0519213
-0.0506122
-0.057857
-0.073563
-0.0963187
-0.12356
-0.151895
-0.177559
-0.196918
-0.206953
-0.205689
-0.192485
-0.168144
-0.134805
-0.0956774
-0.0545727
-0.0162664
0.0156062
0.0382634
0.0511317
0.0540444
0.0495003
-0.0740948
-0.0877832
-0.0945186
-0.0923905
-0.0819727
-0.0644989
-0.0434092
-0.0228002
-0.00813737
-0.00320627
-0.0106638
-0.0315339
-0.0649653
-0.108221
-0.156966
-0.205782
-0.248858
-0.280733
-0.297017
-0.295006
-0.274077
-0.235824
-0.183853
-0.123344
-0.0603442
-0.00241282
0.0449253
0.077529
0.0945793
0.0960368
0.0855727
-0.0674488
-0.0760206
-0.0757766
-0.0649983
-0.0449081
-0.0175944
0.0122512
0.0391491
0.0563946
0.059272
0.0446495
0.0116023
-0.0383037
-0.101035
-0.170501
-0.23926
-0.299445
-0.343756
-0.366414
-0.363966
-0.335801
-0.284297
-0.214524
-0.13364
-0.0499249
0.026226
0.087408
0.128149
0.147464
0.145489
0.127228
-0.0576076
-0.0600276
-0.0518107
-0.0314115
-0.000674208
0.0375099
0.0772773
0.11184
0.133368
0.136254
0.116883
0.0743621
0.0108465
-0.0685117
-0.156082
-0.242627
-0.318443
-0.374572
-0.403962
-0.402455
-0.369399
-0.307817
-0.224033
-0.126916
-0.0266859
0.0637576
0.135362
0.181502
0.201105
0.194472
0.167922
-0.0451064
-0.0408874
-0.024529
0.00538406
0.0464721
0.095173
0.144678
0.187131
0.213843
0.218482
0.197017
0.148536
0.0756042
-0.0158035
-0.116903
-0.217102
-0.305293
-0.371241
-0.406899
-0.407531
-0.372411
-0.305002
-0.212527
-0.105106
0.0056203
0.104873
0.182379
0.230667
0.248666
0.236811
0.202571
-0.0328076
-0.0228172
0.000236911
0.0377071
0.0868399
0.14362
0.200664
0.249456
0.280834
0.28803
0.266753
0.216061
0.138739
0.0412162
-0.0670767
-0.174781
-0.269997
-0.341761
-0.381458
-0.384024
-0.34868
-0.279137
-0.183121
-0.071448
0.0434527
0.145714
0.224388
0.271568
0.286293
0.269121
0.228405
-0.0243044
-0.0109543
0.0156163
0.0567668
0.109596
0.16992
0.230252
0.281946
0.315828
0.325075
0.305374
0.255798
0.179184
0.0820408
-0.026101
-0.133777
-0.228991
-0.300708
-0.340279
-0.342651
-0.307109
-0.237477
-0.141627
-0.0305407
0.0832048
0.183464
0.259209
0.302532
0.312719
0.290472
0.244723
-0.0216333
-0.00821204
0.0177383
0.0576173
0.108621
0.1667
0.224757
0.274582
0.307467
0.316963
0.299021
0.252832
0.181172
0.09031
-0.0106244
-0.110688
-0.198466
-0.263511
-0.297691
-0.296354
-0.259027
-0.18959
-0.0957929
0.0116606
0.120594
0.215306
0.285229
0.322868
0.327882
0.301172
0.251929
-0.0235993
-0.0129814
0.00867153
0.0427541
0.0867559
0.137016
0.187242
0.230163
0.257981
0.265027
0.247813
0.205786
0.141627
0.0611459
-0.0273074
-0.113804
-0.188066
-0.240774
-0.264797
-0.256231
-0.215023
-0.145111
-0.0539468
0.0483683
0.15047
0.237667
0.300277
0.33154
0.331567
0.30151
0.250507
-0.0258934
-0.0192687
-0.00374468
0.0219328
0.0556336
0.0942444
0.132528
0.164484
0.183604
0.185314
0.16694
0.128335
0.0721124
0.00352681
-0.0700616
-0.140037
-0.197604
-0.234925
-0.246174
-0.228428
-0.182176
-0.111413
-0.0231771
0.0732439
0.167565
0.2465
0.301519
0.326786
0.322876
0.291188
0.24051
-0.0230762
-0.0193822
-0.0093092
0.00805175
0.0309114
0.0567316
0.0813938
0.100283
0.108443
0.10257
0.0809627
0.0440013
-0.00570113
-0.0634395
-0.12289
-0.176838
-0.218088
-0.240397
-0.239346
-0.213051
-0.162558
-0.091872
-0.00752141
0.0821497
0.168084
0.23864
0.28655
0.306961
0.300827
0.269722
0.221807
-0.0113845
-0.00777669
-0.000391054
0.0111305
0.0252035
0.039786
0.051766
0.0578242
0.0546668
0.0402783
0.0139658
-0.0233154
-0.0688935
-0.118543
-0.166901
-0.208078
-0.236385
-0.247086
-0.237066
-0.205377
-0.15351
-0.0853727
-0.00688615
0.0746362
0.151425
0.2136
0.255137
0.272116
0.265715
0.237543
0.194895
0.00808815
0.014616
0.0225772
0.0316686
0.040369
0.0470052
0.0492703
0.0449103
0.0322135
0.0103047
-0.0206127
-0.0590739
-0.102358
-0.146668
-0.187495
-0.22011
-0.240135
-0.244112
-0.229997
-0.19755
-0.148501
-0.0864914
-0.0167094
0.0546363
0.121085
0.174559
0.210192
0.224889
0.219863
0.196602
0.16132
0.0304762
0.0416744
0.0524875
0.0619775
0.0686083
0.0709487
0.0672961
0.0561874
0.0372324
0.0104335
-0.023338
-0.0622743
-0.103696
-0.144235
-0.180145
-0.207693
-0.223579
-0.225354
-0.211763
-0.183004
-0.140812
-0.0883808
-0.0300466
0.029138
0.0840121
0.128265
0.158082
0.171071
0.168321
0.151059
0.124314
0.0469159
0.0618657
0.0752514
0.085828
0.0920892
0.0929017
0.0869278
0.073266
0.0524285
0.024951
-0.00796011
-0.0444339
-0.0820318
-0.117918
-0.149109
-0.172772
-0.186512
-0.18866
-0.178498
-0.156411
-0.123921
-0.0836022
-0.0388246
0.00656489
0.0486968
0.0829568
0.106499
0.11758
0.117034
0.105759
0.0875529
0.0510448
0.0667585
0.0805292
0.0910948
0.0971523
0.0976909
0.0919329
0.0792997
0.0606972
0.0368517
0.00896866
-0.0213118
-0.0520125
-0.0809625
-0.105979
-0.125069
-0.136621
-0.139574
-0.133555
-0.118959
-0.0969492
-0.0693827
-0.0386285
-0.00734552
0.0218275
0.0458317
0.0627452
0.0713026
0.072132
0.0657926
0.0549324
0.0424448
0.0553357
0.066586
0.0751818
0.0801731
0.0807349
0.0764424
0.0671049
0.0535415
0.0363981
0.0166193
-0.00460331
-0.0259071
-0.0458622
-0.0630849
-0.0763578
-0.0847324
-0.0876238
-0.0848752
-0.0767912
-0.0641264
-0.0480322
-0.029944
-0.0114481
0.00590198
0.0203811
0.0308138
0.0364232
0.0376345
0.0347207
0.0293647
0.0267696
0.0405276
0.0576949
0.0781036
0.101094
0.125688
0.150328
0.173241
0.192755
0.207158
0.215013
0.215326
0.207659
0.192194
0.169718
0.141556
0.109434
0.0753256
0.0412602
0.00915331
-0.0193537
-0.0430122
-0.0610383
-0.0731293
-0.0794279
-0.0801255
-0.0760968
-0.0684079
-0.0582532
-0.0467315
-0.0347678
0.0370045
0.0565101
0.0811812
0.110685
0.144103
0.180061
0.2162
0.249839
0.278467
0.299544
0.310961
0.31129
0.299951
0.277299
0.244599
0.203899
0.157824
0.109325
0.0613872
0.0167703
-0.0222331
-0.0539652
-0.0774923
-0.0926093
-0.0997566
-0.0994839
-0.0933136
-0.0828664
-0.0696748
-0.0552639
-0.0405888
0.0419401
0.0648361
0.0942362
0.129774
0.170303
0.214127
0.258296
0.299469
0.334464
0.360133
0.373907
0.374096
0.360098
0.332503
0.293031
0.244361
0.189848
0.133184
0.0780278
0.0276569
-0.0153221
-0.0491757
-0.0731229
-0.0873088
-0.0926555
-0.0903722
-0.0824887
-0.071174
-0.0580098
-0.0446374
-0.0317151
0.0371555
0.0592794
0.0885448
0.124667
0.166469
0.212099
0.258453
0.301922
0.338954
0.36617
0.380853
0.381287
0.366973
0.338727
0.29859
0.249612
0.195515
0.140292
0.0877842
0.0412935
0.00326577
-0.0249057
-0.0429265
-0.0515227
-0.0522199
-0.0470881
-0.0385744
-0.0289618
-0.0196594
-0.0120074
-0.00600199
0.0210331
0.0376279
0.0611333
0.0915953
0.128043
0.168781
0.210973
0.251212
0.28592
0.311884
0.326559
0.328397
0.317064
0.2935
0.259819
0.219066
0.174852
0.130943
0.0908222
0.0573071
0.0322478
0.0163653
0.00925523
0.00952413
0.0150749
0.0229974
0.0306868
0.0360009
0.0380784
0.0361979
0.0313115
-0.0046765
0.00238496
0.0155659
0.035394
0.0613403
0.0921231
0.125543
0.15878
0.188481
0.211876
0.226781
0.231895
0.226986
0.212931
0.191613
0.165679
0.138188
0.112227
0.0905129
0.0750457
0.0668556
0.0658906
0.0710727
0.0804768
0.0916531
0.101121
0.10642
0.105826
0.09919
0.0865599
0.0698248
-0.0357161
-0.0405804
-0.0403902
-0.0341124
-0.0216589
-0.00369563
0.0184548
0.0428213
0.0664438
0.0871514
0.103191
0.113481
0.117756
0.116602
0.11136
0.103927
0.0964539
0.091031
0.0893687
0.0925158
0.100679
0.113159
0.128444
0.144404
0.158604
0.16748
0.169023
0.162119
0.14734
0.125451
0.0990555
-0.0652163
-0.0816516
-0.0941254
-0.101135
-0.101936
-0.0965102
-0.085264
-0.0692679
-0.051024
-0.0321116
-0.0139046
0.00262359
0.0170194
0.0293809
0.0403003
0.0507249
0.0617431
0.0743599
0.089281
0.106717
0.126271
0.146917
0.167096
0.184893
0.198299
0.204232
0.201356
0.189218
0.168943
0.141759
0.11056
-0.0866373
-0.11175
-0.133833
-0.151037
-0.162073
-0.166313
-0.163405
-0.153658
-0.139141
-0.120961
-0.100238
-0.0779553
-0.0548624
-0.0314268
-0.00784644
0.0158899
0.0398806
0.0641915
0.0887394
0.113182
0.136862
0.158803
0.17779
0.192487
0.201619
0.203044
0.196164
0.181097
0.15923
0.131909
0.101839
-0.0962292
-0.125558
-0.152494
-0.175002
-0.191482
-0.200908
-0.202475
-0.196046
-0.183363
-0.165272
-0.142791
-0.117
-0.0889452
-0.0595762
-0.0297082
-1.72708e-05
0.0289191
0.0565857
0.0824891
0.106112
0.126886
0.144193
0.157397
0.165901
0.169237
0.166364
0.157282
0.142443
0.123176
0.100603
0.0768748
-0.0946087
-0.123674
-0.150595
-0.173292
-0.19015
-0.20003
-0.202078
-0.196111
-0.183765
-0.165873
-0.143507
-0.117867
-0.0901839
-0.0616331
-0.0332739
-0.00600802
0.0194198
0.0424222
0.0625572
0.079505
0.093043
0.103023
0.109368
0.112073
0.111235
0.10665
0.0985677
0.0874335
0.0742397
0.0596614
0.0451628
-0.0863544
-0.112084
-0.135445
-0.15441
-0.167611
-0.174105
-0.1734
-0.165704
-0.15286
-0.135964
-0.116279
-0.0950957
-0.0736188
-0.0528703
-0.0336349
-0.0164355
-0.00155833
0.0109154
0.0210607
0.0290529
0.0351081
0.0394315
0.0421934
0.0435163
0.043502
0.0420999
0.0392843
0.0351015
0.0300351
0.0242603
0.0187204
-0.0777004
-0.0990669
-0.117301
-0.130445
-0.137571
-0.1382
-0.132574
-0.1217
-0.108028
-0.0931898
-0.0787671
-0.0660863
-0.0560713
-0.0491562
-0.045275
-0.0439188
-0.0442627
-0.0453112
-0.0460587
-0.0456412
-0.0434631
-0.0392802
-0.0332119
-0.0257064
-0.0174305
-0.00927373
-0.00215907
0.00317225
0.00664407
0.00804936
0.00823669
-0.0734898
-0.0911245
-0.104281
-0.111037
-0.111012
-0.10439
-0.0924568
-0.0773622
-0.0625961
-0.0505867
-0.043358
-0.0422196
-0.0475801
-0.0588775
-0.0746575
-0.0927756
-0.110704
-0.125871
-0.136009
-0.139459
-0.135398
-0.12395
-0.106146
-0.0837757
-0.0591018
-0.0349406
-0.0137222
0.00268828
0.0137025
0.0189559
0.0197801
-0.0749363
-0.089988
-0.0986565
-0.0990118
-0.0912585
-0.0763779
-0.0569329
-0.0364911
-0.0199642
-0.0108038
-0.0115944
-0.0236099
-0.046574
-0.0786199
-0.116492
-0.155941
-0.192281
-0.220985
-0.238279
-0.241659
-0.230232
-0.204857
-0.168016
-0.123496
-0.0758523
-0.0307626
0.00734465
0.0352376
0.0519168
0.0570989
0.0531771
-0.079377
-0.0922993
-0.0964997
-0.0900107
-0.0736428
-0.0492476
-0.0208199
0.00647108
0.0260415
0.0332535
0.0248615
-0.000390129
-0.0414673
-0.0950392
-0.155821
-0.217197
-0.272059
-0.313706
-0.33672
-0.337715
-0.315824
-0.272856
-0.213065
-0.142621
-0.0687758
-0.000640515
0.0550758
0.0936579
0.113804
0.115483
0.102588
-0.0821242
-0.092095
-0.0908024
-0.0762468
-0.0498603
-0.0143842
0.0246991
0.0605516
0.0848667
0.0917579
0.0772628
0.0401003
-0.0179664
-0.0921545
-0.175147
-0.257946
-0.330999
-0.38541
-0.414093
-0.412774
-0.380615
-0.320391
-0.238156
-0.142497
-0.0433952
0.0465202
0.118241
0.165599
0.187085
0.182979
0.158889
-0.0793699
-0.0846807
-0.0762995
-0.0522201
-0.014496
0.0332854
0.0842341
0.129933
0.160526
0.168952
0.15055
0.103969
0.0315842
-0.0605489
-0.163309
-0.265564
-0.355563
-0.422413
-0.4575
-0.455705
-0.416159
-0.34245
-0.242182
-0.126056
-0.00644146
0.10091
0.18495
0.238242
0.259155
0.248247
0.212806
-0.0705011
-0.0696913
-0.0532196
-0.0190918
0.0300712
0.0899624
0.152534
0.208068
0.245541
0.256941
0.237028
0.184357
0.101743
-0.00380451
-0.121792
-0.239453
-0.343334
-0.420987
-0.462585
-0.462313
-0.419219
-0.337449
-0.225731
-0.0963205
0.0366469
0.15507
0.246355
0.302135
0.320747
0.30296
0.257506
-0.0584942
-0.0515536
-0.0277481
0.0149133
0.0733841
0.142859
0.214555
0.277933
0.321322
0.336135
0.316775
0.261725
0.174046
0.0612939
-0.065244
-0.191852
-0.304086
-0.388586
-0.434812
-0.436529
-0.392725
-0.307853
-0.191275
-0.0561282
0.0824573
0.205008
0.298049
0.352718
0.367455
0.343186
0.289735
-0.0481211
-0.0370045
-0.00879666
0.0385209
0.101706
0.175757
0.251712
0.31883
0.365395
0.382722
0.365165
0.311218
0.224008
0.11121
-0.015732
-0.14293
-0.255772
-0.340764
-0.387279
-0.389067
-0.345174
-0.260187
-0.14366
-0.00895527
0.12858
0.249102
0.338972
0.389328
0.398872
0.368694
0.309308
-0.042988
-0.0310519
-0.00284404
0.0436961
0.105403
0.177417
0.251184
0.316436
0.362007
0.379641
0.363996
0.313707
0.231849
0.125835
0.00667381
-0.112323
-0.217191
-0.295082
-0.335947
-0.333977
-0.288479
-0.2041
-0.0902521
0.0400237
0.171835
0.285848
0.368933
0.412693
0.416256
0.380932
0.317533
-0.0430666
-0.0336207
-0.00968629
0.0307867
0.0849443
0.14837
0.213416
0.270887
0.310711
0.325539
0.310692
0.265112
0.191769
0.0975527
-0.00742949
-0.111038
-0.200621
-0.264641
-0.294198
-0.284342
-0.234861
-0.150451
-0.0401611
0.0836811
0.207143
0.312089
0.386426
0.422586
0.420247
0.380992
0.315571
-0.0443222
-0.0390447
-0.0218145
0.00926344
0.0517649
0.101919
0.153289
0.198162
0.227995
0.236727
0.220631
0.179125
0.115097
0.034784
-0.0528731
-0.137277
-0.207519
-0.253796
-0.268737
-0.248533
-0.193595
-0.108668
-0.00229823
0.114162
0.228065
0.322952
0.388103
0.416999
0.409891
0.368641
0.303594
-0.0407225
-0.0387883
-0.0278813
-0.0064888
0.0233659
0.0586187
0.0941154
0.123782
0.140908
0.140925
0.121245
0.0818937
0.0257454
-0.0416243
-0.11251
-0.17798
-0.229017
-0.257707
-0.258335
-0.228313
-0.168691
-0.0842109
0.0172023
0.125331
0.229
0.313716
0.370285
0.393288
0.383467
0.342876
0.281135
-0.0275458
-0.025963
-0.0184869
-0.00422412
0.0150518
0.0369183
0.057363
0.0718701
0.075693
0.0657821
0.0407292
0.00122683
-0.0498004
-0.107365
-0.164919
-0.215116
-0.250743
-0.265672
-0.255739
-0.219458
-0.158393
-0.0771551
0.0170748
0.115323
0.207963
0.282626
0.331629
0.350581
0.340539
0.303582
0.248313
-0.00530437
-0.000682846
0.00704154
0.01798
0.0304424
0.0425136
0.0510845
0.0529499
0.0452523
0.0263033
-0.00423984
-0.0450859
-0.0932665
-0.144322
-0.192743
-0.23259
-0.258227
-0.265068
-0.250232
-0.213076
-0.155441
-0.0816068
0.00214417
0.0881785
0.168457
0.232803
0.274957
0.291422
0.283351
0.252643
0.206636
0.0212106
0.0311403
0.041914
0.0528826
0.0623352
0.0687104
0.0695779
0.0627424
0.0469671
0.0216482
-0.0127309
-0.0544509
-0.100588
-0.147202
-0.189714
-0.223402
-0.243953
-0.248017
-0.233682
-0.200845
-0.151361
-0.0889633
-0.0188982
0.05261
0.119109
0.172596
0.20812
0.222931
0.218092
0.195153
0.160042
0.0421735
0.0567513
0.0705525
0.0825439
0.0910269
0.0948249
0.0919508
0.0809671
0.0618179
0.0346202
0.000332898
-0.039192
-0.0812854
-0.122636
-0.159598
-0.188563
-0.206353
-0.210613
-0.200127
-0.17506
-0.137034
-0.089046
-0.0351726
0.0198375
0.0711217
0.112791
0.141118
0.154056
0.15242
0.137331
0.113242
0.0499426
0.066052
0.0806465
0.0925759
0.100376
0.103035
0.099261
0.088106
0.070142
0.0458375
0.0162629
-0.0169161
-0.0515248
-0.0850285
-0.114755
-0.138154
-0.153054
-0.157911
-0.152004
-0.135575
-0.109861
-0.0770184
-0.0399132
-0.00183742
0.0338732
0.0632873
0.083863
0.0940758
0.0945522
0.0859759
0.0714325
0.0436104
0.0572952
0.0694911
0.0792687
0.0855318
0.0874417
0.0842416
0.0755253
0.0619531
0.0440419
0.0226845
-0.000880316
-0.0251399
-0.048417
-0.0690098
-0.0853478
-0.0961347
-0.100487
-0.0980378
-0.0890028
-0.0741859
-0.0549272
-0.0329691
-0.0102887
0.0111325
0.0290545
0.041906
0.0487228
0.0499509
0.0459237
0.0385725
0.0144398
0.0244864
0.038116
0.0555313
0.0762162
0.0993292
0.123357
0.146474
0.166757
0.182348
0.191649
0.19351
0.187357
0.173272
0.151982
0.124788
0.0934344
0.0599343
0.0263784
-0.00525043
-0.0332454
-0.0563042
-0.0736066
-0.0848328
-0.0901283
-0.0896682
-0.0843829
-0.0753829
-0.0639073
-0.0511011
-0.0379421