# vtk DataFile Version 2.0
Func
ASCII
DATASET RECTILINEAR_GRID
DIMENSIONS 31 31 31
X_COORDINATES 31 double
-9.67742
-9.03226
-8.3871
-7.74194
-7.09677
-6.45161
-5.80645
-5.16129
-4.51613
-3.87097
-3.22581
-2.58065
-1.93548
-1.29032
-0.645161
0
0.645161
1.29032
1.93548
2.58065
3.22581
3.87097
4.51613
5.16129
5.80645
6.45161
7.09677
7.74194
8.3871
9.03226
9.67742
Y_COORDINATES 31 double
-9.67742
-9.03226
-8.3871
-7.74194
-7.09677
-6.45161
-5.80645
-5.16129
-4.51613
-3.87097
-3.22581
-2.58065
-1.93548
-1.29032
-0.645161
0
0.645161
1.29032
1.93548
2.58065
3.22581
3.87097
4.51613
5.16129
5.80645
6.45161
7.09677
7.74194
8.3871
9.03226
9.67742
Z_COORDINATES 31 double
-9.67742
-9.03226
-8.3871
-7.74194
-7.09677
-6.45161
-5.80645
-5.16129
-4.51613
-3.87097
-3.22581
-2.58065
-1.93548
-1.29032
-0.645161
0
0.645161
1.29032
1.93548
2.58065
3.22581
3.87097
4.51613
5.16129
5.80645
6.45161
7.09677
7.74194
8.3871
9.03226
9.67742
POINT_DATA 29791
SCALARS data double 1
LOOKUP_TABLE default
0.00965246
0.0132186
0.0167174
0.0203459
0.0241044
0.0280002
0.0320845
0.0362973
0.0406009
0.0446956
0.0480984
0.0501582
0.0500985
0.0470891
0.0403451
0.029241
0.0134278
-0.00706568
-0.0317633
-0.0596969
-0.0894276
-0.119122
-0.146715
-0.170086
-0.187303
-0.195705
-0.194336
-0.182902
-0.163159
-0.13646
-0.106255
0.0114547
0.0154881
0.0193856
0.0234012
0.0276019
0.0321107
0.0370748
0.0424821
0.0483567
0.0543347
0.0597664
0.0637312
0.0650946
0.0626106
0.0550676
0.0414579
0.021155
-0.00593117
-0.0392425
-0.0774966
-0.118713
-0.16032
-0.19938
-0.232845
-0.257905
-0.270582
-0.26966
-0.254699
-0.227851
-0.191182
-0.14902
0.0115519
0.0151579
0.0184125
0.021562
0.0247748
0.0283382
0.0325364
0.0375464
0.0435663
0.0503201
0.0571602
0.063066
0.0667017
0.0665337
0.0610052
0.0487467
0.0288015
0.000828402
-0.0347462
-0.0766177
-0.122617
-0.16983
-0.214853
-0.254095
-0.284192
-0.300397
-0.301021
-0.285787
-0.256754
-0.216235
-0.16907
0.0118768
0.0148782
0.0171423
0.0188041
0.0201257
0.0215167
0.0234882
0.0264913
0.031035
0.0371091
0.0442815
0.0516664
0.0579635
0.061567
0.0607431
0.0538568
0.0396228
0.01734
-0.0129229
-0.0501859
-0.0925436
-0.137265
-0.181036
-0.220265
-0.251501
-0.269958
-0.273755
-0.262237
-0.237274
-0.200869
-0.157737
0.0157868
0.0192704
0.0215104
0.0224269
0.0222858
0.0215521
0.0209159
0.0211163
0.023082
0.0271905
0.0333997
0.0411744
0.0494922
0.0569205
0.0617713
0.0623143
0.057028
0.0448416
0.0253414
-0.00106611
-0.0331023
-0.0686743
-0.105069
-0.139208
-0.168026
-0.187358
-0.195286
-0.190937
-0.175499
-0.150327
-0.119309
0.0257855
0.0319039
0.0362857
0.0385185
0.0387343
0.0373041
0.0349923
0.0327383
0.0319151
0.0333055
0.0373278
0.0439222
0.052515
0.06205
0.0711011
0.0780494
0.0813091
0.0795554
0.0719318
0.0582231
0.038941
0.0153183
-0.0108111
-0.0371981
-0.0614733
-0.0805281
-0.0925859
-0.0966008
-0.0929783
-0.0822605
-0.0672068
0.041388
0.0523291
0.0611733
0.0671044
0.0699808
0.0699149
0.0675933
0.0639948
0.0608599
0.0592888
0.0601207
0.0637896
0.0702495
0.0789569
0.0889305
0.0988755
0.107365
0.113034
0.114763
0.111846
0.104097
0.0918945
0.0761307
0.0581149
0.0393759
0.0217836
0.00681146
-0.00444458
-0.0117082
-0.0147871
-0.0151218
0.0591842
0.0760909
0.0907618
0.101984
0.109255
0.112312
0.111615
0.108003
0.103413
0.0990962
0.096177
0.0954935
0.0974979
0.102195
0.109151
0.117559
0.126365
0.134405
0.140562
0.143897
0.143762
0.13988
0.132353
0.12164
0.108459
0.0935308
0.0779077
0.0625791
0.0482288
0.0355217
0.0241715
0.0737303
0.0959203
0.116008
0.13248
0.144488
0.151363
0.153246
0.150688
0.145589
0.139153
0.132596
0.126996
0.123183
0.121649
0.122518
0.12555
0.13021
0.135747
0.141293
0.14596
0.148937
0.149574
0.147441
0.142347
0.134342
0.123247
0.109627
0.0942232
0.0777979
0.0611621
0.0448576
0.0799328
0.10495
0.128278
0.148288
0.163896
0.17411
0.178731
0.177946
0.173365
0.165956
0.156817
0.147059
0.137701
0.129579
0.123276
0.119093
0.117054
0.11693
0.118277
0.120486
0.122849
0.124635
0.125162
0.12385
0.120278
0.113696
0.104194
0.0921707
0.078193
0.0629352
0.0473641
0.0751444
0.0995553
0.12294
0.143792
0.160968
0.173318
0.180356
0.181896
0.179043
0.172381
0.162702
0.150937
0.138078
0.125092
0.11285
0.10206
0.0932364
0.0866603
0.0823727
0.0801712
0.0796383
0.0801907
0.0811447
0.0817819
0.0814369
0.0791085
0.0744965
0.0676532
0.0587931
0.0482932
0.0371534
0.0601864
0.0807463
0.101131
0.120192
0.136918
0.150197
0.159348
0.163856
0.16418
0.160427
0.152942
0.142292
0.129225
0.114618
0.0994075
0.0845148
0.0707811
0.0588968
0.0493444
0.042355
0.0378938
0.035678
0.0352183
0.0358774
0.0369609
0.0374867
0.0369204
0.0350323
0.0316675
0.0268748
0.0213686
0.0388184
0.0534535
0.0688592
0.0844327
0.0994391
0.112971
0.124254
0.132508
0.137501
0.138831
0.136312
0.130015
0.120273
0.107671
0.0929928
0.0771601
0.0611499
0.0459051
0.0322481
0.0208039
0.0119484
0.00578999
0.00217908
0.00074282
0.000955558
0.00207264
0.00351135
0.0048756
0.00571032
0.00579186
0.00531368
0.0160011
0.0241839
0.0340596
0.0456642
0.0586055
0.0722872
0.0859235
0.0985345
0.109248
0.117175
0.121583
0.121983
0.118193
0.110359
0.0989448
0.0846901
0.0685314
0.0515119
0.0346802
0.0189935
0.00523631
-0.00603448
-0.0145191
-0.0201739
-0.0231842
-0.023874
-0.0226978
-0.0200969
-0.0167418
-0.0130613
-0.00954048
-0.0040919
-0.00165277
0.00323947
0.011243
0.0222993
0.0361594
0.0520809
0.0689513
0.0853894
0.100099
0.111851
0.119618
0.122672
0.120663
0.113639
0.102037
0.0866273
0.0684344
0.0486402
0.0284782
0.00913131
-0.00835633
-0.0231526
-0.0346796
-0.0426453
-0.0467897
-0.0473097
-0.044601
-0.0395101
-0.0326535
-0.025288
-0.0193465
-0.0214311
-0.0206033
-0.0156996
-0.00650054
0.00707592
0.0243744
0.0442326
0.0649522
0.0849595
0.102649
0.116548
0.125448
0.128517
0.125369
0.116086
0.101196
0.0816282
0.0586237
0.0336406
0.0082385
-0.0160384
-0.0377801
-0.0558028
-0.0692491
-0.0771353
-0.0793378
-0.0761602
-0.0686494
-0.0576559
-0.0452388
-0.0297636
-0.0353344
-0.037945
-0.036109
-0.0293959
-0.0174295
-0.000726393
0.0196178
0.0418153
0.0641934
0.0849506
0.10233
0.114767
0.121035
0.120346
0.112422
0.0975084
0.0763709
0.0502351
0.0207109
-0.0103243
-0.040863
-0.0689311
-0.092731
-0.110814
-0.121383
-0.123988
-0.118827
-0.107199
-0.0902643
-0.0708368
-0.036515
-0.0450244
-0.0509874
-0.0527965
-0.0498593
-0.0415388
-0.0281375
-0.0105314
0.00964522
0.030835
0.0512588
0.069075
0.0825292
0.0901138
0.0907025
0.0836575
0.068901
0.0469502
0.018905
-0.0135954
-0.0484771
-0.0833793
-0.115853
-0.143553
-0.164479
-0.176012
-0.177397
-0.168708
-0.151519
-0.127328
-0.0995713
-0.0407429
-0.0519823
-0.0615174
-0.0677931
-0.0700801
-0.0674967
-0.0600362
-0.0481823
-0.0331807
-0.0162522
0.00107055
0.0170646
0.0299491
0.0380476
0.0399435
0.0346283
0.0216259
0.00108445
-0.0261815
-0.0586853
-0.0943465
-0.130632
-0.164779
-0.194025
-0.215905
-0.227071
-0.22647
-0.214002
-0.191443
-0.160554
-0.125178
-0.0428947
-0.0566092
-0.0697707
-0.0809868
-0.0893971
-0.09388
-0.0940216
-0.0897577
-0.0817461
-0.0706824
-0.0576664
-0.0441382
-0.0317783
-0.0223581
-0.0175689
-0.0188355
-0.0271361
-0.0428446
-0.0656236
-0.0943566
-0.127184
-0.161619
-0.19478
-0.223646
-0.245399
-0.256131
-0.254458
-0.240004
-0.214574
-0.179997
-0.140265
-0.0429555
-0.0585827
-0.0749357
-0.0908133
-0.105224
-0.116808
-0.124673
-0.128106
-0.12705
-0.121562
-0.112199
-0.100031
-0.0865792
-0.0736891
-0.0633505
-0.0574728
-0.057647
-0.0649178
-0.0796012
-0.101147
-0.128119
-0.158273
-0.18878
-0.216497
-0.238344
-0.250051
-0.249824
-0.236886
-0.212834
-0.179303
-0.140211
-0.0412812
-0.0580581
-0.0767633
-0.0963384
-0.115661
-0.133142
-0.147382
-0.157013
-0.161237
-0.159462
-0.151706
-0.138671
-0.121739
-0.102864
-0.0843782
-0.0687398
-0.0582285
-0.0546487
-0.0590686
-0.0716116
-0.0913717
-0.116452
-0.144166
-0.171316
-0.1946
-0.209538
-0.213836
-0.20621
-0.187849
-0.159963
-0.126272
-0.0393387
-0.0567507
-0.0770411
-0.0991908
-0.121945
-0.143494
-0.161975
-0.175441
-0.182458
-0.181888
-0.173313
-0.157174
-0.134795
-0.108301
-0.0804137
-0.0541564
-0.0324965
-0.0179797
-0.0123966
-0.0165087
-0.0299057
-0.051004
-0.0772329
-0.105317
-0.131716
-0.151783
-0.162675
-0.16257
-0.152175
-0.132194
-0.106178
-0.039593
-0.0578402
-0.0795525
-0.103628
-0.128668
-0.152663
-0.173376
-0.18844
-0.196004
-0.194581
-0.183506
-0.163118
-0.134805
-0.100928
-0.0646001
-0.029355
0.00125862
0.0241015
0.0368348
0.0382447
0.0284278
0.00881758
-0.0179975
-0.0485685
-0.0790631
-0.104598
-0.121816
-0.128449
-0.124832
-0.111273
-0.0913391
-0.0444025
-0.0645035
-0.0882652
-0.1144
-0.141354
-0.166935
-0.188671
-0.203971
-0.210865
-0.207756
-0.193959
-0.169883
-0.137087
-0.0981951
-0.0566524
-0.016361
0.0187588
0.0452337
0.0604637
0.0630758
0.0531281
0.0321397
0.00289663
-0.0308658
-0.0649819
-0.0942013
-0.114803
-0.12427
-0.122835
-0.110702
-0.0917095
-0.0545827
-0.077944
-0.104824
-0.133698
-0.162847
-0.189936
-0.212408
-0.227653
-0.233881
-0.22962
-0.214355
-0.188704
-0.154453
-0.114452
-0.0723481
-0.0322007
0.00197481
0.0266871
0.0394042
0.0389111
0.0255059
0.00101257
-0.0314412
-0.0677736
-0.103505
-0.132921
-0.152174
-0.158764
-0.15316
-0.135822
-0.111092
-0.067553
-0.0948561
-0.125268
-0.157076
-0.188435
-0.216942
-0.240122
-0.25553
-0.261789
-0.25772
-0.2431
-0.218796
-0.186784
-0.150013
-0.112127
-0.0770742
-0.0486611
-0.0300851
-0.0235213
-0.0297857
-0.0481696
-0.0764577
-0.111184
-0.148004
-0.182275
-0.207906
-0.221211
-0.219972
-0.205142
-0.177707
-0.142468
-0.0787171
-0.10916
-0.142182
-0.175969
-0.208638
-0.237835
-0.261324
-0.276971
-0.283917
-0.281351
-0.269354
-0.248993
-0.222308
-0.192154
-0.161932
-0.135214
-0.115334
-0.104963
-0.105743
-0.117997
-0.140599
-0.171036
-0.205672
-0.240138
-0.269896
-0.288779
-0.293536
-0.282395
-0.25687
-0.218512
-0.172505
-0.0813784
-0.111904
-0.144406
-0.177171
-0.208435
-0.236134
-0.25835
-0.273375
-0.280838
-0.280274
-0.271979
-0.257069
-0.237435
-0.215594
-0.194441
-0.176925
-0.165706
-0.162797
-0.169275
-0.185043
-0.208753
-0.237878
-0.268981
-0.298067
-0.321096
-0.33236
-0.329224
-0.310611
-0.278236
-0.234037
-0.183061
-0.0716597
-0.0981391
-0.126015
-0.153837
-0.180183
-0.203313
-0.221924
-0.234747
-0.241725
-0.242653
-0.237903
-0.228454
-0.215838
-0.202014
-0.189173
-0.179488
-0.174851
-0.176614
-0.185378
-0.200821
-0.221664
-0.245733
-0.270192
-0.291827
-0.307461
-0.312478
-0.305117
-0.284385
-0.252225
-0.21046
-0.163509
-0.0519664
-0.0709598
-0.0908679
-0.11059
-0.129193
-0.145423
-0.158481
-0.167643
-0.172966
-0.174393
-0.172245
-0.167221
-0.160361
-0.152955
-0.146408
-0.142084
-0.141135
-0.144338
-0.151964
-0.163677
-0.178514
-0.194939
-0.211005
-0.224546
-0.233459
-0.234716
-0.22707
-0.209934
-0.184973
-0.153389
-0.118731
0.0111841
0.0159002
0.0208964
0.0266268
0.0331231
0.0404655
0.048669
0.0575107
0.0667709
0.0758529
0.0838854
0.0897643
0.0922259
0.0899618
0.0817682
0.0667112
0.0442935
0.0145945
-0.0216371
-0.0629255
-0.107112
-0.151475
-0.192966
-0.22847
-0.255151
-0.269047
-0.268969
-0.254526
-0.227961
-0.191402
-0.149256
0.011466
0.0164118
0.021741
0.0281042
0.0356626
0.0446966
0.0553339
0.0673374
0.0804706
0.093954
0.106586
0.116796
0.122741
0.122476
0.114168
0.0963361
0.068102
0.0294008
-0.0188739
-0.0747717
-0.135346
-0.196822
-0.254915
-0.305208
-0.343632
-0.364303
-0.365875
-0.347815
-0.312644
-0.26337
-0.205675
0.00876538
0.0125033
0.0165231
0.0216221
0.0281333
0.0365994
0.0473323
0.0602949
0.0753789
0.0918326
0.108356
0.123143
0.133985
0.138473
0.134247
0.1193
0.0922903
0.0528152
0.00160631
-0.0593289
-0.126756
-0.196403
-0.263322
-0.32233
-0.36858
-0.395122
-0.399974
-0.382875
-0.34607
-0.29287
-0.229629
0.00616617
0.00833811
0.0104334
0.0132657
0.0173247
0.0233571
0.0319968
0.0435352
0.0581903
0.0754933
0.0943486
0.113043
0.129335
0.140641
0.144307
0.137925
0.119681
0.0886747
0.0451523
-0.00930992
-0.0718213
-0.138342
-0.20403
-0.263679
-0.312312
-0.34297
-0.353347
-0.34257
-0.31266
-0.2665
-0.210213
0.00878721
0.0109201
0.0124191
0.0139393
0.0160043
0.0194853
0.0252682
0.0339955
0.0463848
0.0624354
0.0815134
0.102313
0.122907
0.140889
0.153622
0.158535
0.15347
0.137009
0.108736
0.0694468
0.0211778
-0.0328954
-0.0887433
-0.141859
-0.187782
-0.220488
-0.237501
-0.237556
-0.221831
-0.192271
-0.1538
0.0206741
0.0259479
0.0300018
0.0331242
0.0356738
0.0384474
0.0424261
0.0484759
0.0578795
0.0711443
0.0882145
0.108383
0.130288
0.151998
0.171203
0.185463
0.192524
0.190618
0.178732
0.15682
0.125884
0.087943
0.0458406
0.00296565
-0.0371591
-0.070042
-0.0932446
-0.105174
-0.106105
-0.0968441
-0.0807158
0.0414157
0.0531109
0.0631303
0.0712265
0.077386
0.0821038
0.0862295
0.0906259
0.0970713
0.106482
0.119353
0.135632
0.154658
0.175195
0.195535
0.213688
0.227629
0.235551
0.236106
0.228598
0.213102
0.190491
0.162344
0.130782
0.0981878
0.0672899
0.0402511
0.0187882
0.00335562
-0.00584236
-0.0104063
0.0662393
0.0861739
0.104219
0.119535
0.131604
0.140441
0.146551
0.150553
0.154518
0.159567
0.16659
0.176095
0.18812
0.202197
0.217397
0.232426
0.245802
0.256034
0.261811
0.262154
0.256541
0.244982
0.227999
0.206566
0.181964
0.155315
0.128301
0.102488
0.0786935
0.0577435
0.0394383
0.0873127
0.114685
0.14026
0.162692
0.180961
0.194538
0.203457
0.207921
0.209996
0.210765
0.211277
0.212415
0.21478
0.218622
0.223825
0.229921
0.236189
0.241745
0.24566
0.247062
0.245235
0.239708
0.230287
0.21707
0.200413
0.180217
0.157519
0.133494
0.108908
0.084746
0.0616917
0.0971698
0.128609
0.158662
0.185714
0.208386
0.225678
0.237154
0.242535
0.243554
0.241026
0.23591
0.229204
0.221846
0.214627
0.208128
0.202679
0.198373
0.195077
0.192471
0.190082
0.187346
0.183681
0.178544
0.171483
0.16219
0.149804
0.134679
0.117431
0.0984695
0.0785453
0.058677
0.0918063
0.122511
0.152545
0.180342
0.204415
0.223487
0.236748
0.243485
0.244806
0.241082
0.232948
0.221254
0.206993
0.191222
0.174983
0.15922
0.144724
0.132084
0.121638
0.113457
0.107345
0.102887
0.0994991
0.0964947
0.0931831
0.0883718
0.0818105
0.0735522
0.0635019
0.051977
0.0398715
0.0721958
0.0976167
0.12333
0.148156
0.170773
0.189867
0.204418
0.213376
0.217035
0.215211
0.208035
0.195965
0.179764
0.160445
0.139202
0.117303
0.0960026
0.0764299
0.0594936
0.0458001
0.0356115
0.0288464
0.0251087
0.0237495
0.0239718
0.0245878
0.0249453
0.0246562
0.0231599
0.0203286
0.0166334
0.0435438
0.0607952
0.0794609
0.0990206
0.118525
0.136856
0.152935
0.165485
0.173917
0.17745
0.175597
0.16824
0.155665
0.138552
0.117932
0.0950854
0.0714373
0.0484184
0.0273337
0.00924043
-0.00513877
-0.0154576
-0.0217521
-0.0244037
-0.0240561
-0.0216311
-0.0179175
-0.0135379
-0.00937457
-0.00589278
-0.00320855
0.01279
0.0211841
0.0321398
0.0459353
0.0621014
0.0798769
0.098231
0.115745
0.131002
0.142649
0.149537
0.150869
0.14629
0.135933
0.120411
0.100748
0.0782795
0.0545099
0.0309682
0.00906282
-0.0100404
-0.0255007
-0.0368517
-0.0440045
-0.0472125
-0.046905
-0.043749
-0.0383911
-0.0318856
-0.0249215
-0.0182908
-0.0142412
-0.0136503
-0.00950206
-0.000735165
0.0126624
0.0303593
0.0514307
0.0743768
0.0971218
0.117816
0.134696
0.146282
0.151519
0.149884
0.141421
0.126726
0.10686
0.0832396
0.0574936
0.0313111
0.00629725
-0.0161479
-0.0349298
-0.0493147
-0.0589646
-0.0635901
-0.0635513
-0.0593727
-0.0522068
-0.0429379
-0.0331021
-0.0346298
-0.0400872
-0.0413441
-0.0367062
-0.0257525
-0.00838179
0.0146202
0.0417457
0.0705044
0.0986994
0.124085
0.144597
0.158542
0.164745
0.162648
0.152339
0.134514
0.110408
0.0816683
0.0502215
0.0181118
-0.0126543
-0.0402624
-0.0632106
-0.0804281
-0.0906868
-0.0939603
-0.0905973
-0.081873
-0.0689456
-0.0541553
-0.0483754
-0.0584031
-0.0641187
-0.0634337
-0.0556138
-0.0401605
-0.0176739
0.0104512
0.0416064
0.0734666
0.103524
0.129331
0.148708
0.159938
0.161907
0.154195
0.137094
0.11159
0.0792797
0.0422622
0.00297918
-0.0359695
-0.072034
-0.102905
-0.126722
-0.141151
-0.145792
-0.140831
-0.127745
-0.108094
-0.0850399
-0.05699
-0.0707887
-0.0807993
-0.0848053
-0.08184
-0.0710495
-0.052763
-0.0280787
0.000602072
0.0311049
0.0609476
0.0875636
0.10851
0.121687
0.125519
0.1191
0.102279
0.075706
0.0408051
-0.0002833
-0.0448533
-0.0898288
-0.132018
-0.168373
-0.196283
-0.21226
-0.215575
-0.206268
-0.186072
-0.157021
-0.123014
-0.0617792
-0.0789657
-0.0935085
-0.103299
-0.10719
-0.104003
-0.093674
-0.0767811
-0.05519
-0.0306209
-0.00522004
0.0186115
0.0384036
0.0518385
0.0569618
0.0523805
0.0374226
0.0122551
-0.0220651
-0.0635863
-0.109577
-0.156714
-0.20137
-0.239925
-0.269136
-0.284467
-0.284877
-0.270217
-0.24242
-0.203916
-0.159126
-0.0629781
-0.083006
-0.102007
-0.118141
-0.130115
-0.136437
-0.136524
-0.130221
-0.118564
-0.102549
-0.0837125
-0.0640474
-0.0458589
-0.0315616
-0.0234509
-0.0234535
-0.0328929
-0.0522834
-0.0811914
-0.118146
-0.160698
-0.205576
-0.248985
-0.286952
-0.315756
-0.330063
-0.328448
-0.31044
-0.277989
-0.233675
-0.182112
-0.0602433
-0.0820433
-0.104651
-0.126563
-0.146355
-0.162236
-0.173007
-0.177642
-0.176143
-0.168601
-0.155777
-0.13911
-0.120639
-0.10283
-0.0883372
-0.0797073
-0.0790635
-0.087806
-0.106371
-0.134047
-0.168953
-0.208149
-0.247916
-0.284126
-0.312714
-0.327846
-0.32757
-0.310895
-0.279528
-0.235841
-0.184311
-0.0540183
-0.0762156
-0.100976
-0.127095
-0.153032
-0.176712
-0.196289
-0.209847
-0.216291
-0.214781
-0.205279
-0.188663
-0.166717
-0.141992
-0.117562
-0.0966779
-0.0823724
-0.0770628
-0.0822031
-0.0979997
-0.123305
-0.155663
-0.191566
-0.226831
-0.25711
-0.276308
-0.281782
-0.271836
-0.247704
-0.211231
-0.166539
-0.0466952
-0.0683504
-0.0939763
-0.122549
-0.152409
-0.181216
-0.206533
-0.225654
-0.236519
-0.237484
-0.227855
-0.208083
-0.179809
-0.145761
-0.109495
-0.0750015
-0.0462309
-0.0266044
-0.0185642
-0.0231988
-0.0400528
-0.0671154
-0.101056
-0.137603
-0.172097
-0.19826
-0.212656
-0.212814
-0.199409
-0.173633
-0.139265
-0.0424245
-0.063798
-0.090029
-0.120102
-0.152218
-0.183799
-0.211935
-0.233344
-0.245301
-0.245639
-0.233275
-0.20846
-0.172873
-0.129521
-0.0824616
-0.0363634
0.00403803
0.0345107
0.0518567
0.0543587
0.0420316
0.0166718
-0.0183738
-0.0586009
-0.0989519
-0.132851
-0.156112
-0.165614
-0.161593
-0.14473
-0.118727
-0.0453896
-0.0681523
-0.0960882
-0.128016
-0.161959
-0.195139
-0.224344
-0.24597
-0.257071
-0.255303
-0.239517
-0.210033
-0.168737
-0.118977
-0.0652522
-0.012733
0.033336
0.0682623
0.0884873
0.092075
0.0789916
0.0511604
0.0122134
-0.0329349
-0.0787501
-0.118128
-0.146367
-0.159989
-0.159101
-0.144266
-0.119529
-0.0574562
-0.0840506
-0.115634
-0.150729
-0.187156
-0.221984
-0.251886
-0.273205
-0.283233
-0.279787
-0.261949
-0.230324
-0.187113
-0.135979
-0.0817113
-0.0297065
0.0146519
0.0466432
0.0628066
0.061437
0.042854
0.00943111
-0.034692
-0.0840825
-0.132735
-0.172823
-0.199494
-0.209323
-0.202681
-0.180493
-0.147581
-0.0754552
-0.107451
-0.143863
-0.182916
-0.222247
-0.258884
-0.289581
-0.310877
-0.320662
-0.317173
-0.29991
-0.269851
-0.229486
-0.182646
-0.134146
-0.0892539
-0.0530817
-0.0299498
-0.0228186
-0.0328193
-0.0590286
-0.0984874
-0.146534
-0.197315
-0.244547
-0.279755
-0.298365
-0.297405
-0.277806
-0.241209
-0.193307
-0.092959
-0.129917
-0.17053
-0.212796
-0.254282
-0.292099
-0.323285
-0.34477
-0.355217
-0.353395
-0.339265
-0.314126
-0.280606
-0.242462
-0.204224
-0.170681
-0.14632
-0.134746
-0.138177
-0.157035
-0.189776
-0.232966
-0.281642
-0.329838
-0.371348
-0.397449
-0.404205
-0.38933
-0.354432
-0.301929
-0.238274
-0.09991
-0.138028
-0.178938
-0.220649
-0.260868
-0.297102
-0.326768
-0.347359
-0.358271
-0.358782
-0.349195
-0.330928
-0.306463
-0.27915
-0.252877
-0.23162
-0.218967
-0.217635
-0.22906
-0.253064
-0.287753
-0.329627
-0.37393
-0.415147
-0.447695
-0.463372
-0.459085
-0.433605
-0.38872
-0.32733
-0.255881
-0.0905891
-0.124441
-0.160266
-0.196331
-0.230749
-0.2614
-0.286511
-0.304173
-0.314267
-0.316456
-0.311188
-0.299741
-0.284166
-0.267106
-0.251538
-0.240416
-0.236314
-0.241063
-0.25545
-0.278978
-0.309822
-0.344924
-0.380304
-0.411469
-0.433964
-0.441053
-0.430783
-0.401957
-0.356797
-0.298034
-0.231374
-0.0672932
-0.092083
-0.118179
-0.144261
-0.169032
-0.190909
-0.208784
-0.22156
-0.229284
-0.231842
-0.229641
-0.223619
-0.215197
-0.206147
-0.198413
-0.193883
-0.19415
-0.200278
-0.212619
-0.23066
-0.253006
-0.277454
-0.301219
-0.321212
-0.33443
-0.33641
-0.325638
-0.301375
-0.265735
-0.220686
-0.170696
0.0087426
0.0136837
0.0196321
0.0273315
0.0368885
0.048473
0.0619302
0.0767892
0.0924608
0.107942
0.121904
0.132776
0.13885
0.138438
0.130057
0.112619
0.0856176
0.04928
0.00465606
-0.0463347
-0.100972
-0.155899
-0.207404
-0.25174
-0.285519
-0.304092
-0.305913
-0.290927
-0.261513
-0.220204
-0.172079
0.00499142
0.00937289
0.0152654
0.0238058
0.0353132
0.0502327
0.0684686
0.0894389
0.112322
0.135732
0.157783
0.176204
0.188487
0.192118
0.184838
0.164923
0.131458
0.0845661
0.0255409
-0.0430662
-0.117546
-0.193261
-0.265027
-0.327564
-0.376051
-0.403663
-0.408586
-0.39079
-0.35283
-0.298248
-0.233569
-0.00353183
-0.00179621
0.0017246
0.00854066
0.0192553
0.0346753
0.0548801
0.0794322
0.107437
0.13737
0.167053
0.193771
0.214452
0.225932
0.225277
0.210126
0.179037
0.131777
0.0695043
-0.00510341
-0.0879466
-0.173769
-0.256582
-0.330206
-0.388909
-0.424702
-0.434955
-0.420009
-0.382024
-0.324904
-0.255821
-0.0125998
-0.0141985
-0.0140648
-0.0104704
-0.00252196
0.0109134
0.0302526
0.0553836
0.0855858
0.11951
0.15505
0.189439
0.219418
0.24151
0.252352
0.249071
0.229659
0.19331
0.140646
0.0738744
-0.00327139
-0.0857746
-0.167748
-0.242971
-0.305551
-0.347553
-0.365938
-0.360252
-0.332367
-0.285577
-0.226759
-0.0150367
-0.0181316
-0.0198293
-0.0184214
-0.0128759
-0.00182695
0.0154073
0.0390936
0.0689208
0.103959
0.142496
0.182098
0.219738
0.252033
0.275551
0.28717
0.284451
0.265978
0.231616
0.182689
0.121972
0.053515
-0.0177037
-0.0862362
-0.146763
-0.192463
-0.220085
-0.228547
-0.218783
-0.192915
-0.156375
-0.00505239
-0.00553672
-0.00507272
-0.00226915
0.00378375
0.0144438
0.0304592
0.0523454
0.080323
0.113956
0.152093
0.192882
0.233843
0.272048
0.304372
0.32779
0.339725
0.338355
0.32287
0.29366
0.252353
0.201726
0.145448
0.0877412
0.0329004
-0.0139996
-0.0497627
-0.072713
-0.0828606
-0.0809702
-0.0706249
0.0175027
0.0240148
0.0310627
0.0394434
0.0496574
0.0627637
0.0792955
0.0997684
0.124914
0.154716
0.1886
0.225404
0.263402
0.300415
0.333977
0.361562
0.380853
0.390005
0.387861
0.374119
0.349411
0.315276
0.274015
0.228468
0.18169
0.136813
0.096666
0.0632511
0.037215
0.0189263
0.00665912
0.04702
0.0631828
0.07961
0.0963569
0.113314
0.130998
0.149477
0.169002
0.190647
0.214626
0.240816
0.2687
0.297352
0.325484
0.351532
0.37379
0.390599
0.400521
0.402502
0.395991
0.381024
0.358243
0.328835
0.294411
0.256829
0.217522
0.178684
0.142249
0.109055
0.080073
0.0549509
0.0737883
0.0990125
0.124424
0.14937
0.173099
0.195472
0.21597
0.234405
0.251918
0.26873
0.284968
0.300606
0.315429
0.329034
0.340844
0.350155
0.356232
0.358388
0.356073
0.348926
0.336837
0.31998
0.298799
0.273975
0.246355
0.216133
0.18467
0.153454
0.123044
0.0944254
0.06796
0.0882905
0.118755
0.149552
0.179543
0.207495
0.232665
0.253999
0.270823
0.284032
0.293656
0.299845
0.302838
0.302929
0.300439
0.295679
0.288928
0.280436
0.270418
0.25905
0.24646
0.23274
0.217967
0.202213
0.185553
0.168082
0.149258
0.129556
0.109761
0.0898457
0.0703643
0.0517776
0.0851833
0.115241
0.146016
0.176243
0.204498
0.229642
0.250267
0.265299
0.2751
0.279363
0.278053
0.271422
0.259991
0.244521
0.225954
0.205333
0.18374
0.162209
0.141646
0.122758
0.106008
0.0916158
0.0795531
0.0695816
0.0613138
0.0538818
0.0469911
0.0406856
0.0342771
0.0277175
0.021148
0.0652681
0.0895375
0.115152
0.141124
0.166171
0.18903
0.208192
0.222311
0.231033
0.233624
0.229691
0.219248
0.202734
0.181006
0.155271
0.126986
0.0977486
0.0691565
0.0426699
0.0194876
0.000457668
-0.0139617
-0.0237161
-0.0291216
-0.0307863
-0.0296226
-0.0264312
-0.0217487
-0.0167673
-0.012046
-0.00793546
0.0345862
0.0497033
0.0670166
0.0861568
0.106245
0.12617
0.144527
0.159831
0.170933
0.176632
0.176047
0.168738
0.154777
0.134766
0.109797
0.0813511
0.0511698
0.0210883
-0.00713331
-0.0319691
-0.0522521
-0.0672474
-0.0766895
-0.0807632
-0.0800381
-0.0752769
-0.0674382
-0.0573562
-0.0464539
-0.0355633
-0.0255314
0.00130475
0.00656615
0.0150136
0.0270962
0.0424745
0.0603904
0.0796632
0.0987397
0.115721
0.128932
0.136924
0.138654
0.133603
0.121843
0.104032
0.0813403
0.0553307
0.0277911
0.000558942
-0.0246539
-0.0464098
-0.06365
-0.0757615
-0.0825882
-0.084402
-0.0816277
-0.0750446
-0.0655
-0.0543976
-0.0426277
-0.0314909
-0.0278053
-0.0310388
-0.0301217
-0.0237625
-0.011756
0.0055917
0.0273543
0.05194
0.0768372
0.0999312
0.119197
0.132929
0.139903
0.1395
0.131746
0.117293
0.0973136
0.0733739
0.047262
0.0208169
-0.00423584
-0.0264189
-0.0446093
-0.0580949
-0.066606
-0.0699892
-0.0686056
-0.063137
-0.0548477
-0.044627
-0.0342451
-0.0495001
-0.0591077
-0.0638575
-0.0617537
-0.0521307
-0.0348297
-0.0105411
0.0191388
0.0512969
0.0834789
0.113168
0.138047
0.156206
0.166308
0.167698
0.160425
0.145196
0.123286
0.0963989
0.0665113
0.0356998
0.00597548
-0.0208706
-0.0433855
-0.0605649
-0.0713916
-0.0757157
-0.0740209
-0.0674732
-0.0570884
-0.0452039
-0.0639319
-0.0782102
-0.0874285
-0.0891364
-0.0823243
-0.0664071
-0.0418446
-0.0101436
0.0256534
0.06294
0.0989004
0.130782
0.156129
0.172997
0.180104
0.176925
0.163698
0.141396
0.111629
0.0765197
0.0385306
0.00026877
-0.0357206
-0.0671462
-0.0921705
-0.108656
-0.115978
-0.114499
-0.105428
-0.0901385
-0.0716527
-0.0727659
-0.0908424
-0.104346
-0.110668
-0.108562
-0.0970676
-0.076365
-0.0476913
-0.0138918
0.0225537
0.0588234
0.092008
0.119349
0.138477
0.147615
0.14572
0.132571
0.108801
0.0758597
0.0359374
-0.00819504
-0.0534007
-0.0964311
-0.134193
-0.164036
-0.182579
-0.188821
-0.183081
-0.16675
-0.141737
-0.111775
-0.0770265
-0.0984263
-0.116475
-0.128694
-0.133673
-0.130125
-0.117842
-0.0975465
-0.0715211
-0.0417808
-0.0108012
0.0186827
0.0438914
0.0622448
0.0715909
0.0704109
0.0579751
0.0344559
0.000966411
-0.0404486
-0.0869399
-0.135066
-0.181081
-0.221263
-0.252281
-0.269588
-0.271869
-0.259393
-0.233744
-0.197351
-0.15451
-0.0761795
-0.100029
-0.122361
-0.141044
-0.154566
-0.161345
-0.160655
-0.152456
-0.138107
-0.118825
-0.0964032
-0.0730926
-0.0514409
-0.0340687
-0.0234252
-0.0215324
-0.0297502
-0.0485739
-0.0775032
-0.114963
-0.15837
-0.20432
-0.248877
-0.28795
-0.317716
-0.332735
-0.331344
-0.313598
-0.281126
-0.236619
-0.184613
-0.0690494
-0.0936355
-0.118868
-0.143085
-0.164725
-0.181937
-0.193375
-0.198063
-0.19615
-0.187816
-0.173933
-0.156064
-0.136368
-0.117422
-0.10197
-0.0926216
-0.0915334
-0.100107
-0.118751
-0.146695
-0.181977
-0.221569
-0.261653
-0.298013
-0.326503
-0.341159
-0.339823
-0.322055
-0.289274
-0.244002
-0.190623
-0.0558604
-0.0790034
-0.104929
-0.132447
-0.159985
-0.185453
-0.20685
-0.22223
-0.230398
-0.230427
-0.222207
-0.206567
-0.185261
-0.160845
-0.136418
-0.115278
-0.100519
-0.0946248
-0.0991093
-0.114227
-0.138855
-0.17055
-0.20579
-0.240367
-0.269893
-0.288182
-0.292382
-0.281286
-0.255838
-0.217984
-0.17167
-0.0399037
-0.0600574
-0.0847559
-0.113169
-0.143725
-0.174119
-0.201747
-0.2238
-0.237848
-0.241982
-0.235252
-0.217888
-0.191368
-0.158332
-0.12232
-0.0873814
-0.0575864
-0.0365141
-0.0267845
-0.0296619
-0.0448425
-0.0704364
-0.103187
-0.138857
-0.17277
-0.198618
-0.21271
-0.212931
-0.199642
-0.174021
-0.139558
-0.0273006
-0.0446898
-0.0677737
-0.0958781
-0.127395
-0.159833
-0.190096
-0.214752
-0.230475
-0.234694
-0.225928
-0.20409
-0.170606
-0.128347
-0.0813509
-0.0343838
0.00762922
0.0402037
0.0598599
0.0646014
0.0542025
0.0302727
-0.00395337
-0.0440147
-0.0848155
-0.119763
-0.144334
-0.155634
-0.153542
-0.138625
-0.114223
-0.0245958
-0.0416018
-0.0647535
-0.0932916
-0.125492
-0.158698
-0.189484
-0.214088
-0.228823
-0.23087
-0.218626
-0.192028
-0.152696
-0.103846
-0.0499956
0.0035341
0.0512452
0.0881288
0.110291
0.115484
0.103424
0.0758701
0.0363887
-0.0100785
-0.057876
-0.0997976
-0.130706
-0.147289
-0.149275
-0.137086
-0.114456
-0.0354013
-0.0557663
-0.0820998
-0.113344
-0.147566
-0.18198
-0.213002
-0.236836
-0.250018
-0.249908
-0.23516
-0.206042
-0.164538
-0.114249
-0.0600428
-0.00752194
0.037638
0.0703874
0.0869485
0.085358
0.0657769
0.0305319
-0.0161619
-0.0686985
-0.120813
-0.164378
-0.194018
-0.206532
-0.201923
-0.181078
-0.148695
-0.0567079
-0.0834015
-0.115394
-0.151249
-0.188795
-0.225199
-0.256913
-0.280375
-0.292826
-0.292126
-0.277446
-0.249533
-0.210766
-0.165003
-0.117209
-0.0728962
-0.0374705
-0.0155405
-0.0103011
-0.0230167
-0.0527628
-0.0964453
-0.149138
-0.204632
-0.256231
-0.294893
-0.315484
-0.315407
-0.295277
-0.256898
-0.20616
-0.0807234
-0.114331
-0.152321
-0.192906
-0.233751
-0.272084
-0.304601
-0.328168
-0.340979
-0.341544
-0.329626
-0.306426
-0.274578
-0.237965
-0.201322
-0.169703
-0.147859
-0.139611
-0.147296
-0.171312
-0.209937
-0.259411
-0.314316
-0.36816
-0.414192
-0.442866
-0.449697
-0.432951
-0.394016
-0.335703
-0.264983
-0.0947554
-0.131636
-0.171869
-0.213562
-0.254411
-0.292013
-0.323422
-0.346108
-0.359185
-0.361786
-0.35414
-0.337675
-0.314975
-0.289573
-0.265592
-0.247259
-0.238375
-0.241793
-0.25896
-0.289553
-0.331371
-0.380462
-0.431505
-0.478375
-0.514888
-0.531874
-0.525754
-0.496016
-0.444279
-0.374034
-0.292357
-0.0904129
-0.124527
-0.161029
-0.198153
-0.233968
-0.266413
-0.293402
-0.313005
-0.324973
-0.328906
-0.325254
-0.31537
-0.301442
-0.28631
-0.273168
-0.265181
-0.265082
-0.274771
-0.294985
-0.325034
-0.362747
-0.404604
-0.44607
-0.482068
-0.50759
-0.514976
-0.501941
-0.467872
-0.414963
-0.346487
-0.268869
-0.069389
-0.0950705
-0.122352
-0.149814
-0.176115
-0.199691
-0.219203
-0.233542
-0.242706
-0.246562
-0.245548
-0.240688
-0.233528
-0.226004
-0.220232
-0.218255
-0.221774
-0.231888
-0.248885
-0.272078
-0.299786
-0.329425
-0.357769
-0.381272
-0.396504
-0.39831
-0.3849
-0.355927
-0.313623
-0.260395
-0.20129
0.00229531
0.00640544
0.0124975
0.0215897
0.0338624
0.049502
0.0681312
0.0889162
0.11075
0.132176
0.151434
0.166586
0.175661
0.176835
0.168619
0.150043
0.120818
0.0814554
0.0333211
-0.0213577
-0.0795918
-0.137818
-0.192198
-0.238928
-0.274642
-0.294832
-0.29805
-0.284196
-0.255855
-0.215547
-0.168432
-0.00768097
-0.00542136
-0.000110324
0.00989614
0.0250665
0.0458764
0.0719341
0.102127
0.134785
0.167814
0.198645