# vtk DataFile Version 2.0
Func
ASCII
DATASET RECTILINEAR_GRID
DIMENSIONS 31 31 31
X_COORDINATES 31 double
-9.67742
-9.03226
-8.3871
-7.74194
-7.09677
-6.45161
-5.80645
-5.16129
-4.51613
-3.87097
-3.22581
-2.58065
-1.93548
-1.29032
-0.645161
0
0.645161
1.29032
1.93548
2.58065
3.22581
3.87097
4.51613
5.16129
5.80645
6.45161
7.09677
7.74194
8.3871
9.03226
9.67742
Y_COORDINATES 31 double
-9.67742
-9.03226
-8.3871
-7.74194
-7.09677
-6.45161
-5.80645
-5.16129
-4.51613
-3.87097
-3.22581
-2.58065
-1.93548
-1.29032
-0.645161
0
0.645161
1.29032
1.93548
2.58065
3.22581
3.87097
4.51613
5.16129
5.80645
6.45161
7.09677
7.74194
8.3871
9.03226
9.67742
Z_COORDINATES 31 double
-9.67742
-9.03226
-8.3871
-7.74194
-7.09677
-6.45161
-5.80645
-5.16129
-4.51613
-3.87097
-3.22581
-2.58065
-1.93548
-1.29032
-0.645161
0
0.645161
1.29032
1.93548
2.58065
3.22581
3.87097
4.51613
5.16129
5.80645
6.45161
7.09677
7.74194
8.3871
9.03226
9.67742
POINT_DATA 29791
SCALARS data double 1
LOOKUP_TABLE default
-0.0569867
-0.0740036
-0.0899224
-0.103101
-0.112992
-0.118816
-0.120726
-0.119111
-0.115136
-0.109433
-0.102588
-0.0950403
-0.0870311
-0.0785762
-0.0694977
-0.0594894
-0.0482148
-0.0354064
-0.0209594
-0.00501347
0.0120024
0.0293671
0.0461304
0.0611981
0.0734812
0.0814933
0.0844664
0.0819976
0.074922
0.0637696
0.0505215
-0.0770679
-0.100022
-0.121239
-0.138801
-0.151914
-0.159721
-0.162485
-0.160695
-0.156062
-0.149472
-0.141711
-0.13332
-0.124523
-0.115202
-0.104947
-0.0931647
-0.0792276
-0.0626312
-0.0431384
-0.0209051
0.00345412
0.0288623
0.0538748
0.0768154
0.0959911
0.109089
0.114992
0.113008
0.104187
0.0894046
0.0710532
-0.0825443
-0.106971
-0.129505
-0.148194
-0.162269
-0.17106
-0.174775
-0.174122
-0.17102
-0.166443
-0.161187
-0.155713
-0.150064
-0.143859
-0.136365
-0.126638
-0.113724
-0.0968568
-0.075642
-0.0502147
-0.0213201
0.00968795
0.0409666
0.0703615
0.0956736
0.113995
0.123729
0.124092
0.116093
0.100696
0.0806199
-0.069325
-0.0898392
-0.108913
-0.124916
-0.137399
-0.1459
-0.150846
-0.152992
-0.154029
-0.154776
-0.155791
-0.157224
-0.158761
-0.159637
-0.158742
-0.15478
-0.146503
-0.132927
-0.113532
-0.0884308
-0.0584497
-0.0251174
0.00947245
0.0428621
0.0725302
0.0952875
0.109238
0.113301
0.108438
0.0954909
0.0772832
-0.0412806
-0.0535387
-0.0653654
-0.0758136
-0.0848955
-0.0925645
-0.0993294
-0.105856
-0.113211
-0.121798
-0.131688
-0.142519
-0.153488
-0.163392
-0.170761
-0.174038
-0.171804
-0.162991
-0.147075
-0.124222
-0.0953505
-0.062109
-0.0267179
0.0082361
0.0401122
0.0657123
0.0829957
0.0907652
0.0898075
0.0807844
0.0665173
-0.00749078
-0.00999214
-0.0134553
-0.0177003
-0.0232328
-0.0304021
-0.0397092
-0.0515745
-0.066178
-0.0833218
-0.102435
-0.122543
-0.142309
-0.160125
-0.174262
-0.183056
-0.185103
-0.17945
-0.16575
-0.144367
-0.116405
-0.0836556
-0.0484303
-0.0133491
0.0189659
0.0454507
0.0641067
0.0737699
0.0751297
0.0687374
0.0574806
0.0231002
0.0290836
0.0327033
0.0333973
0.0302767
0.0227237
0.0103655
-0.00684926
-0.0281379
-0.05263
-0.0790791
-0.105911
-0.131321
-0.153411
-0.170353
-0.180563
-0.182862
-0.176624
-0.161869
-0.139326
-0.110406
-0.0771162
-0.0418774
-0.00731099
0.024055
0.0493134
0.0666805
0.0752028
0.0756377
0.0686111
0.0571094
0.0425862
0.0535752
0.0610642
0.0639996
0.0613142
0.0523254
0.03689
0.0153729
-0.0106248
-0.0396319
-0.0698366
-0.0992039
-0.125623
-0.147078
-0.161813
-0.168495
-0.166333
-0.155173
-0.135538
-0.10863
-0.0762608
-0.0407219
-0.0045838
0.0295167
0.0591594
0.0815184
0.0951415
0.0994216
0.0953719
0.0838991
0.0682241
0.0475979
0.0592944
0.0668482
0.0690508
0.0648826
0.0538003
0.0359274
0.0119977
-0.0158831
-0.045842
-0.0757285
-0.103278
-0.126287
-0.142804
-0.151291
-0.150764
-0.140881
-0.121988
-0.0951176
-0.0619424
-0.0246644
0.0141449
0.0517629
0.0855322
0.113131
0.131732
0.14025
0.138469
0.127767
0.109455
0.0870341
0.0389774
0.0475637
0.0519661
0.0511545
0.0443372
0.0312431
0.0122238
-0.0117681
-0.0385328
-0.0660844
-0.0922309
-0.11475
-0.131569
-0.14095
-0.141646
-0.133017
-0.115099
-0.0886211
-0.0549766
-0.0161544
0.0253944
0.0669324
0.105661
0.138939
0.164538
0.179599
0.18335
0.175898
0.158938
0.134158
0.105239
0.0212857
0.0244836
0.0240232
0.0192933
0.00981519
-0.0043798
-0.0228317
-0.0445826
-0.0677464
-0.0905366
-0.111021
-0.127275
-0.137537
-0.140376
-0.13482
-0.120473
-0.0975608
-0.0669539
-0.0301297
0.0108897
0.0536675
0.0955213
0.13374
0.165792
0.18957
0.202259
0.203264
0.192845
0.172815
0.145026
0.113082
0.00112191
-0.00130701
-0.00645765
-0.0144363
-0.0254291
-0.0391802
-0.0552788
-0.0729831
-0.0910259
-0.108083
-0.122719
-0.133489
-0.139057
-0.138313
-0.130496
-0.115285
-0.0928601
-0.0639351
-0.0297425
0.00800185
0.0471991
0.0855054
0.12052
0.149972
0.171942
0.18383
0.185069
0.175851
0.157794
0.132593
0.103398
-0.0148982
-0.0212811
-0.0292729
-0.0385501
-0.0491089
-0.060617
-0.0728584
-0.0854691
-0.0979327
-0.109534
-0.119457
-0.126818
-0.130731
-0.130386
-0.125136
-0.114584
-0.0986602
-0.0776694
-0.0523202
-0.0237257
0.00664672
0.0370644
0.0656691
0.0906267
0.110312
0.122576
0.126768
0.122825
0.111854
0.0950545
0.0747303
-0.0218633
-0.0292423
-0.0371906
-0.0451561
-0.0530845
-0.0607278
-0.0681459
-0.0754041
-0.0826634
-0.0898169
-0.0966482
-0.102808
-0.107826
-0.11114
-0.112164
-0.110356
-0.1053
-0.0967842
-0.0848584
-0.0698747
-0.0524922
-0.0336457
-0.0144667
0.0038145
0.0200006
0.0326339
0.0409662
0.0446008
0.0439238
0.0394078
0.0322173
-0.0176709
-0.0227054
-0.0275498
-0.0316843
-0.0351269
-0.0378325
-0.0401195
-0.0424014
-0.0452608
-0.0490501
-0.0540104
-0.0602105
-0.0675173
-0.0755934
-0.0839268
-0.0918846
-0.0987853
-0.103978
-0.106917
-0.10723
-0.104763
-0.0995983
-0.0920481
-0.0826123
-0.0719187
-0.0605426
-0.049216
-0.0385984
-0.0290449
-0.0208542
-0.0141105
-0.0033028
-0.00319034
-0.00253344
-0.00108793
0.000987546
0.00349814
0.00598498
0.00788339
0.00856078
0.00746072
0.00411102
-0.00180908
-0.010422
-0.0216244
-0.0350846
-0.0502616
-0.0664441
-0.0828041
-0.098461
-0.112539
-0.124234
-0.132869
-0.137946
-0.139167
-0.136462
-0.129419
-0.118527
-0.10449
-0.0882249
-0.0706409
-0.0529658
0.0176636
0.0244684
0.03174
0.0392837
0.0468034
0.0539154
0.0602109
0.0652374
0.068704
0.0701465
0.0691129
0.0652009
0.0580994
0.0476271
0.0337697
0.0167107
-0.00314604
-0.0251724
-0.0485295
-0.072187
-0.0949745
-0.115655
-0.133017
-0.145969
-0.153646
-0.154639
-0.148911
-0.136906
-0.119782
-0.0987451
-0.0758849
0.0401313
0.0535554
0.0669987
0.0797764
0.091522
0.101779
0.110401
0.117307
0.122862
0.12696
0.129383
0.12979
0.127721
0.122646
0.114032
0.10144
0.0846258
0.0636399
0.0388888
0.0111882
-0.0182474
-0.0478659
-0.0759037
-0.100532
-0.120064
-0.132162
-0.136015
-0.13151
-0.119684
-0.101689
-0.0800956
0.0588709
0.0772897
0.0950342
0.110988
0.124816
0.136128
0.145211
0.152547
0.159319
0.165946
0.172591
0.179056
0.184766
0.188797
0.189987
0.187097
0.179009
0.164924
0.144531
0.118142
0.0867455
0.0519725
0.0159577
-0.0188562
-0.0500055
-0.0743718
-0.0902407
-0.0967477
-0.0945265
-0.0843989
-0.0690344
0.0698911
0.0905986
0.109847
0.126222
0.139516
0.14952
0.157036
0.163181
0.16993
0.178277
0.188804
0.2015
0.215705
0.230124
0.242974
0.252201
0.255773
0.251973
0.239669
0.218532
0.189165
0.153098
0.11265
0.0706999
0.030335
-0.00474798
-0.0319869
-0.0497497
-0.0581428
-0.0575303
-0.0503835
0.0714565
0.0914201
0.109199
0.123243
0.133527
0.140071
0.144161
0.147479
0.1526
0.161017
0.173684
0.190782
0.21162
0.234648
0.257611
0.277821
0.29251
0.299196
0.296031
0.28209
0.257549
0.223724
0.182935
0.138259
0.0931505
0.0516171
0.0168164
-0.00902863
-0.0255496
-0.0326957
-0.0325563
0.0644622
0.0811578
0.0951301
0.104823
0.110392
0.112052
0.111424
0.110569
0.112357
0.118606
0.130541
0.14852
0.171918
0.199121
0.22769
0.254649
0.276854
0.291401
0.296006
0.289328
0.271183
0.242604
0.205723
0.163533
0.119505
0.0776268
0.0412463
0.0128482
-0.00690908
-0.0177211
-0.0212208
0.0520382
0.0641207
0.0732101
0.0778188
0.0782116
0.0746913
0.0689831
0.0632652
0.0603627
0.0622066
0.0701618
0.0847541
0.105542
0.131103
0.159176
0.186931
0.211316
0.229443
0.238962
0.238371
0.227235
0.206261
0.177203
0.142653
0.105701
0.0699378
0.0384269
0.0135193
-0.00406636
-0.0139666
-0.0173507
0.0384494
0.0460427
0.0506706
0.0509239
0.0470578
0.0393113
0.0292603
0.0189162
0.0107724
0.00666216
0.00797108
0.0153887
0.0287844
0.0471772
0.0688433
0.0915247
0.112715
0.129973
0.141236
0.145091
0.14096
0.129179
0.110943
0.0881421
0.0631071
0.038642
0.0170993
0.000337094
-0.0110547
-0.0167945
-0.0176051
0.0276284
0.0321239
0.033954
0.0317507
0.0256296
0.015617
0.0029172
-0.0108621
-0.0237446
-0.034155
-0.0407779
-0.0427617
-0.0398308
-0.0323348
-0.0211952
-0.00777894
0.00628581
0.0193206
0.0298123
0.0366091
0.0390624
0.0371011
0.0312146
0.0223684
0.0118525
0.00135848
-0.00775463
-0.0143619
-0.0180891
-0.0187781
-0.0167231
0.0219241
0.0253737
0.0266599
0.0244041
0.0184803
0.00859991
-0.00454478
-0.0198936
-0.0360505
-0.0517868
-0.065912
-0.0774255
-0.0856123
-0.0901129
-0.0909332
-0.0884116
-0.0831513
-0.0759304
-0.0675968
-0.0589633
-0.0507177
-0.0433577
-0.0371599
-0.0321811
-0.0282885
-0.0250829
-0.0222842
-0.0195727
-0.0167703
-0.0137927
-0.0105074
0.0211334
0.02536
0.0280084
0.0276846
0.0239866
0.0162963
0.00477324
-0.0100918
-0.027435
-0.046388
-0.0659143
-0.0849081
-0.102275
-0.117018
-0.128309
-0.135541
-0.138369
-0.136731
-0.130853
-0.121223
-0.108553
-0.0937251
-0.0777131
-0.0615059
-0.0460277
-0.0321142
-0.0204331
-0.0113669
-0.00484756
-0.000770244
0.00133454
0.0231078
0.0289872
0.0338751
0.0363763
0.0358611
0.0314565
0.0228854
0.0101607
-0.00626576
-0.0258422
-0.0476978
-0.0706994
-0.0935168
-0.114722
-0.132897
-0.146758
-0.155268
-0.157749
-0.153957
-0.14413
-0.128983
-0.109664
-0.0876392
-0.0645647
-0.0421194
-0.0220787
-0.00575679
0.00598225
0.0131957
0.0160722
0.0153951
0.0243657
0.0314502
0.0380147
0.0427738
0.0449881
0.0437122
0.038399
0.0287671
0.0150059
-0.00257166
-0.0232728
-0.0460515
-0.0695607
-0.0922491
-0.112486
-0.128707
-0.139573
-0.14411
-0.141832
-0.132819
-0.117736
-0.0977909
-0.0746205
-0.050126
-0.0262777
-0.00527765
0.0113108
0.0224788
0.028296
0.0290473
0.0257519
0.0221963
0.0291235
0.0358605
0.0413395
0.0448834
0.0456115
0.0429877
0.0366146
0.0265413
0.0129225
-0.00373842
-0.0225995
-0.0425178
-0.0621307
-0.0799678
-0.0945882
-0.104726
-0.109434
-0.108195
-0.101009
-0.0884187
-0.0714769
-0.0516419
-0.0306326
-0.0102398
0.00747654
0.0211373
0.0297189
0.0333905
0.032444
0.0279433
0.0164456
0.0217455
0.0270533
0.0315707
0.0348304
0.0361813
0.0352054
0.031594
0.0253338
0.0164907
0.00538196
-0.00742686
-0.0211452
-0.034814
-0.0473851
-0.0578204
-0.0651983
-0.0688177
-0.0682841
-0.0635718
-0.0550464
-0.0434449
-0.0297993
-0.0153366
-0.00133447
0.0107359
0.0198415
0.0252723
0.0271891
0.025728
0.0219195
-0.0801165
-0.103739
-0.125384
-0.14294
-0.155555
-0.1623
-0.163409
-0.159396
-0.152062
-0.142373
-0.13122
-0.119257
-0.106833
-0.0939542
-0.0803291
-0.065472
-0.0488516
-0.0300438
-0.0088752
0.0144503
0.0392861
0.0645393
0.0887674
0.110311
0.127515
0.138019
0.140781
0.135274
0.122686
0.103971
0.0819001
-0.107112
-0.13857
-0.16708
-0.190073
-0.20643
-0.215256
-0.216918
-0.211989
-0.203102
-0.191604
-0.17868
-0.165137
-0.151303
-0.136991
-0.121582
-0.104175
-0.0838185
-0.0597435
-0.0315811
0.000445879
0.0354293
0.0717728
0.107331
0.139614
0.166108
0.18319
0.189442
0.183985
0.168207
0.143547
0.113428
-0.114082
-0.147264
-0.177248
-0.201386
-0.218612
-0.228342
-0.230843
-0.227013
-0.219797
-0.210686
-0.200897
-0.191138
-0.1815
-0.171436
-0.159875
-0.145425
-0.126671
-0.102466
-0.0722082
-0.0360755
0.00485625
0.0486194
0.0925251
0.133428
0.168114
0.192114
0.203354
0.200885
0.185979
0.160229
0.127484
-0.0959214
-0.123659
-0.14885
-0.169269
-0.184268
-0.193477
-0.197516
-0.197397
-0.195746
-0.193853
-0.192625
-0.192365
-0.192684
-0.192522
-0.190292
-0.184123
-0.172184
-0.153016
-0.125823
-0.0907253
-0.0488766
-0.00245082
0.0455531
0.0916052
0.132075
0.162156
0.179365
0.182267
0.172111
0.150326
0.120801
-0.0578379
-0.0744537
-0.0899481
-0.103023
-0.113662
-0.121952
-0.128664
-0.134765
-0.141984
-0.151052
-0.162218
-0.175104
-0.188667
-0.201267
-0.210842
-0.215169
-0.212188
-0.200315
-0.178725
-0.147574
-0.108094
-0.0625633
-0.0140908
0.0336804
0.0770095
0.111192
0.133533
0.142378
0.13873
0.123745
0.101068
-0.0128312
-0.016648
-0.0212907
-0.0265098
-0.0329519
-0.041097
-0.0517393
-0.065602
-0.0831518
-0.104302
-0.12844
-0.154366
-0.180336
-0.204181
-0.223507
-0.235961
-0.239513
-0.232731
-0.21501
-0.186737
-0.149341
-0.105229
-0.057562
-0.00995185
0.0339491
0.0697537
0.0948199
0.107472
0.108556
0.0990267
0.0823428
0.0269903
0.0340124
0.0382163
0.0388966
0.0348981
0.0255189
0.0101169
-0.0116071
-0.0387694
-0.0703725
-0.104898
-0.14035
-0.174377
-0.204438
-0.228031
-0.242932
-0.247427
-0.240522
-0.222097
-0.192996
-0.155014
-0.110787
-0.0635492
-0.0168442
0.0258663
0.0605264
0.0848049
0.0972653
0.0987806
0.0903391
0.0753258
0.050986
0.0639574
0.0725121
0.0753697
0.0711477
0.0591634
0.0390781
0.0110956
-0.022787
-0.0607747
-0.100607
-0.139691
-0.175289
-0.204726
-0.225619
-0.236095
-0.234969
-0.221877
-0.197356
-0.162861
-0.120682
-0.073787
-0.0255597
0.0204879
0.0610829
0.0923446
0.112428
0.120348
0.117221
0.104345
0.0853088
0.0549608
0.068055
0.0758684
0.0770373
0.0702567
0.0550823
0.0315338
0.00026738
-0.03609
-0.0752418
-0.114514
-0.151046
-0.182007
-0.20483
-0.217434
-0.218415
-0.207172
-0.183994
-0.150068
-0.107447
-0.0589101
-0.00776422
0.0424311
0.0881571
0.126286
0.15293
0.16678
0.167386
0.156226
0.135088
0.107937
0.0406387
0.0488873
0.0518928
0.0486738
0.0382396
0.0204987
-0.00422963
-0.0350366
-0.0692805
-0.104586
-0.138294
-0.167657
-0.190058
-0.203233
-0.205479
-0.195827
-0.174137
-0.141158
-0.0985055
-0.0486071
0.00546313
0.060199
0.111946
0.157196
0.192926
0.215142
0.222966
0.216393
0.197218
0.16768
0.132082
0.0147677
0.0154497
0.0117789
0.00346983
-0.0100511
-0.0285376
-0.0515505
-0.0782242
-0.106498
-0.134369
-0.159622
-0.179977
-0.193277
-0.19767
-0.191798
-0.174951
-0.14717
-0.109303
-0.0629965
-0.0106505
0.0447262
0.0997214
0.150789
0.194533
0.228041
0.24728
0.251572
0.241108
0.217768
0.183974
0.144072
-0.0133221
-0.0200993
-0.0297283
-0.0417157
-0.0562599
-0.0729164
-0.0913603
-0.111079
-0.13102
-0.149924
-0.166347
-0.17873
-0.185514
-0.185278
-0.176893
-0.159669
-0.133481
-0.098854
-0.0569994
-0.00982146
0.0401801
0.0900669
0.136693
0.176965
0.208154
0.226418
0.231014
0.222003
0.200996
0.17017
0.13342
-0.0345738
-0.0461715
-0.0588795
-0.071575
-0.0842315
-0.0964106
-0.108112
-0.119401
-0.130389
-0.140749
-0.149962
-0.157287
-0.161796
-0.162448
-0.158211
-0.148209
-0.131867
-0.10905
-0.0801585
-0.0462004
-0.00877296
0.0300239
0.0677562
0.101869
0.129961
0.148729
0.157164
0.154913
0.142971
0.122821
0.0973629
-0.0425271
-0.0547238
-0.0664495
-0.0762761
-0.0841445
-0.089814
-0.0937161
-0.0965518
-0.0994391
-0.102944
-0.107418
-0.112872
-0.118944
-0.124909
-0.129764
-0.132366
-0.131598
-0.12654
-0.116629
-0.101788
-0.082486
-0.0597417
-0.0350258
-0.010118
0.0131055
0.032253
0.0460144
0.0535065
0.0548907
0.0506493
0.0422634
-0.0347135
-0.0429708
-0.0496751
-0.05349
-0.0544857
-0.0527294
-0.0490369
-0.0446072
-0.041127
-0.0397962
-0.0415879
-0.0470752
-0.0563398
-0.0689388
-0.0839492
-0.100077
-0.115818
-0.129634
-0.140141
-0.146268
-0.147382
-0.143362
-0.134583
-0.121859
-0.106318
-0.0891241
-0.0717113
-0.0553724
-0.0407762
-0.0284903
-0.0186201
-0.0128784
-0.0135637
-0.0123206
-0.0082636
-0.00167264
0.00708671
0.0170164
0.0267345
0.0345914
0.0391744
0.0392569
0.033971
0.0229181
0.00623246
-0.0154204
-0.0409038
-0.0687183
-0.0971423
-0.124391
-0.148764
-0.16879
-0.183343
-0.191714
-0.193634
-0.189263
-0.178345
-0.162062
-0.141769
-0.118728
-0.0943281
-0.0701287
0.017815
0.0265353
0.0368093
0.0488355
0.0621456
0.0761982
0.0901236
0.102772
0.113159
0.120134
0.122621
0.119726
0.110838
0.0956969
0.0744453
0.0476393
0.0162376
-0.0184452
-0.0548139
-0.0910695
-0.125328
-0.155747
-0.180657
-0.198674
-0.208821
-0.209364
-0.20075
-0.183924
-0.160335
-0.131767
-0.100853
0.0503137
0.0680869
0.0863997
0.104694
0.122418
0.139045
0.154171
0.167289
0.178576
0.187562
0.193663
0.196181
0.194356
0.187431
0.174754
0.155885
0.13072
0.0995841
0.063294
0.0231951
-0.0188808
-0.0607197
-0.0998933
-0.133959
-0.160717
-0.177017
-0.182148
-0.17617
-0.160287
-0.136196
-0.107102
0.0775429
0.102008
0.125582
0.147041
0.165893
0.181821
0.195153
0.206326
0.216928
0.227439
0.237979
0.248184
0.257186
0.263663
0.265995
0.262476
0.251593
0.232281
0.204158
0.167698
0.124301
0.0762367
0.0264553
-0.0216842
-0.0647961
-0.0984949
-0.120661
-0.13018
-0.127673
-0.114374
-0.0935741
0.0941918
0.12166
0.146673
0.167534
0.183946
0.195926
0.204658
0.211639
0.219823
0.230701
0.245155
0.263206
0.283919
0.30544
0.325186
0.34017
0.347414
0.344374
0.329328
0.301709
0.262271
0.213105
0.157439
0.0993186
0.0431141
-0.00582627
-0.0440288
-0.069179
-0.0811838
-0.0806432
-0.0705805
0.0980029
0.124472
0.147067
0.163854
0.174791
0.18025
0.182212
0.18313
0.187009
0.196212
0.212295
0.23565
0.265353
0.29917
0.333792
0.365221
0.389296
0.402241
0.401186
0.384605
0.352585
0.306895
0.250795
0.188686
0.125558
0.0673382
0.0184867
-0.0177564
-0.0406682
-0.0502732
-0.0491341
0.0902119
0.112446
0.129766
0.140191
0.143918
0.141566
0.135677
0.129367
0.127191
0.132098
0.146127
0.169997
0.202912
0.242548
0.285291
0.326659
0.36187
0.38645
0.396822
0.390802
0.36793
0.329575
0.278766
0.219844
0.157902
0.0989533
0.0478291
0.00819233
-0.0188508
-0.0329653
-0.0361944
0.0749928
0.0913637
0.102307
0.105905
0.102477
0.0927022
0.0793165
0.0656745
0.0563384
0.054472
0.0623673
0.0810226
0.109928
0.147034
0.188964
0.231414
0.269692
0.299308
0.31655
0.318982
0.305778
0.27785
0.237715
0.189185
0.136857
0.0862363
0.0418106
0.00706701
-0.0168064
-0.0293702
-0.032145
0.0579905
0.0688027
0.0742482
0.0724836
0.0637853
0.0486552
0.0296177
0.0098159
-0.00666217
-0.016791
-0.0182437
-0.0097819
0.00853639
0.0353
0.0679039
0.102868
0.136283
0.164303
0.183635
0.191972
0.188293
0.172989
0.147786
0.115506
0.0796717
0.0446602
0.0139636
-0.00963397
-0.0251156
-0.0321151
-0.0316171
0.0443876
0.0515698
0.0539617
0.0497394
0.0389579
0.0217406
4.37806e-05
-0.0235875
-0.0458569
-0.0641516
-0.076279
-0.0807904
-0.077169
-0.0659144
-0.0484624
-0.0269859
-0.0040998
0.017479
0.0352791
0.0473941
0.0527136
0.0510453
0.0430968
0.0303435
0.0147944
-0.000836297
-0.014477
-0.0243923
-0.0298603
-0.0306318
-0.027106
0.0372567
0.0435312
0.0459628
0.0426738
0.0333663
0.0176671
-0.00326405
-0.0277228
-0.0533266
-0.0780315
-0.0998838
-0.117262
-0.129036
-0.134684
-0.1343
-0.128537
-0.118486
-0.105516
-0.0910982
-0.0766193
-0.0632346
-0.0517568
-0.0426062
-0.035816
-0.0310886
-0.027688
-0.0250904
-0.0227002
-0.0200804
-0.0170221
-0.0132617
0.0362418
0.0439054
0.0488319
0.0490733
0.0439472
0.032594
0.0153373
-0.00701033
-0.0329213
-0.0609522
-0.0894393
-0.116659
-0.140962
-0.160907
-0.175362
-0.183575
-0.185218
-0.180397
-0.169634
-0.15382
-0.134136
-0.111959
-0.0887473
-0.0659261
-0.0447766
-0.0264855
-0.0118838
-0.0013577
0.00534389
0.00851419
0.0090216
0.0385404
0.0486109
0.0570174
0.0617778
0.0619026
0.0561716
0.044214
0.0260802
0.00261962
-0.0252556
-0.0561837
-0.088447
-0.120078
-0.14901
-0.173235
-0.190981
-0.200867
-0.202055
-0.194345
-0.178237
-0.154908
-0.126131
-0.0941131
-0.0612926
-0.0300995
-0.00321326
0.0176086
0.0313087
0.0380812
0.0383755
0.0336314
0.039371
0.0510317
0.0618465
0.0699908
0.0743437
0.0736004
0.0669444
0.0539466
0.0350079
0.0106385
-0.0181053
-0.0496665
-0.0820696
-0.113065
-0.140314
-0.161603
-0.175067
-0.179394
-0.173993
-0.159105
-0.13582
-0.10601
-0.0721454
-0.0370575
-0.00364342
0.0247063
0.0458661
0.0585994
0.0630492
0.0598111
0.0506805
0.0352392
0.0464372
0.0573355
0.0664259
0.0726924
0.0749128
0.0722697
0.0641339
0.0506513
0.0320682
0.00913847
-0.016893
-0.0443491
-0.0712417
-0.0954388
-0.114868
-0.127729
-0.132703
-0.129115
-0.117061
-0.0974342
-0.0718753
-0.0426079
-0.0122221
0.0166131
0.0406778
0.0580961
0.0675359
0.0692817
0.0639187
0.0532697
0.0260956
0.0346762
0.0432546
0.0507378
0.0563986
0.0593062
0.0588187
0.0544455
0.0462001
0.0341841
0.0188708
0.00110121
-0.0179529
-0.0368738
-0.0541184
-0.0681676
-0.0776851
-0.0816727
-0.0795973
-0.0714845
-0.0579474
-0.0401524
-0.0197001
0.00152999
0.0215995
0.0381815
0.0498122
0.0555419
0.0556702
0.0505444
0.0418261
-0.0922057
-0.118824
-0.142746
-0.161555
-0.174252
-0.179927
-0.178741
-0.171467
-0.160313
-0.146506
-0.131159
-0.115086
-0.0987085
-0.0820152
-0.0646239
-0.0459088
-0.0251912
-0.00193219
0.0240863
0.0526002
0.0827825
0.113244
0.142156
0.167422
0.186956
0.197701
0.198346
0.188466
0.169529
0.142857
0.111975
-0.122505
-0.157629
-0.188814
-0.213093
-0.22917
-0.236257
-0.234616
-0.225164
-0.211117
-0.194186
-0.175862
-0.157159
-0.138488
-0.119617
-0.0997727
-0.077827
-0.0525913
-0.0231048
0.0110941
0.0497256
0.0916535
0.134888
0.176756
0.214167
0.244003
0.261635
0.265327
0.254359
0.230371
0.195301
0.153534
-0.130069
-0.166804
-0.199216
-0.22427
-0.240695
-0.248076
-0.246571
-0.237528
-0.224559
-0.209583
-0.19417
-0.17926
-0.165012
-0.150799
-0.135328
-0.116901
-0.0937761
-0.0645325
-0.0284106
0.0143916
0.0625732
0.113743
0.164622
0.211378
0.250099
0.275171
0.284066
0.276083
0.252672
0.215984
0.17087
-0.109167
-0.1396
-0.166425
-0.187043
-0.200683
-0.207136
-0.207034
-0.20186
-0.194891
-0.18785
-0.181993
-0.177834
-0.175024
-0.172379
-0.168037
-0.159758
-0.14532
-0.12292
-0.091534
-0.0512352
-0.00334201
0.0495987
0.104037
0.155779
0.200502
0.232321
0.24824
0.246956
0.229869
0.198854
0.158723
-0.0665842
-0.0847367
-0.100904
-0.113523
-0.122544
-0.128193
-0.131369
-0.133472
-0.136772
-0.142378
-0.150833
-0.161918
-0.174587
-0.187042
-0.196922
-0.201615
-0.198646
-0.186054
-0.162737
-0.128733
-0.0853466
-0.0351192
0.0184082
0.0710476
0.118467
0.155101
0.177733
0.18475
0.177191
0.156479
0.12689
-0.0177009
-0.0222712
-0.0270777
-0.0317186
-0.0368835
-0.043119
-0.0514596
-0.0629656
-0.0784931
-0.0982455
-0.121821
-0.148115
-0.175346
-0.201172
-0.222911
-0.237845
-0.243552
-0.238234
-0.220998
-0.192065
-0.152851
-0.105906
-0.0546732
-0.00315306
0.0445574
0.0835043
0.110541
0.123968
0.124546
0.113301
0.0939835
0.023703
0.030014
0.0337984
0.0344628
0.0307728
0.022065
0.00738834
-0.0137725
-0.0407847
-0.0728453
-0.108568
-0.146
-0.182734
-0.216071
-0.243261
-0.261775
-0.26957
-0.265338
-0.248695
-0.220306
-0.181895
-0.136141
-0.0864312
-0.0365449
0.00975926
0.0481352
0.0757861
0.0912421
0.0951755
0.0884938
0.0745903
0.0457984
0.0571399
0.0641635
0.0657573
0.0604795
0.0478058
0.0270654
-0.00165682
-0.0365552
-0.0759753
-0.117755
-0.159336
-0.197938
-0.230767
-0.25525
-0.269279
-0.271408
-0.261016
-0.238415
-0.204891
-0.162639
-0.114613
-0.064271
-0.015262
0.0289446
0.0643504
0.0886747
0.100951
0.101999
0.0929676
0.0772904
0.0446325
0.0544364
0.0590595
0.057463
0.0483508
0.0315402
0.00672217
-0.0255408
-0.0628782
-0.103163
-0.143865
-0.182207
-0.215374
-0.240734
-0.256065
-0.259769
-0.251017
-0.229862
-0.197279
-0.155147
-0.106143
-0.0535407
-0.000947996
0.0480036
0.0900163
0.121112
0.139548
0.144961
0.138471
0.121714
0.0984798
0.0232211
0.0262692
0.0244172
0.0172373
0.0038366
-0.0155575
-0.0409584
-0.0716344
-0.105407
-0.140208
-0.17366
-0.203219
-0.226377
-0.240858
-0.244834
-0.23712
-0.217307
-0.185846
-0.144079
-0.0942118
-0.0391825
0.0175417
0.0722405
0.12125
0.161325
0.188271
0.200721
0.198804
0.183898
0.158136
0.125731
-0.00980676
-0.015905
-0.0255429
-0.0382013
-0.054279
-0.0732192
-0.0949601
-0.119014
-0.144113
-0.168802
-0.191371
-0.209927
-0.222531
-0.227356
-0.222885
-0.208092
-0.182601
-0.1468
-0.101899
-0.0499496
0.00625789
0.0633753
0.117757
0.165767
0.204155
0.228474
0.237458
0.231381
0.211661
0.180644
0.142717
-0.0432755
-0.0576162
-0.0733786
-0.0890491
-0.104613
-0.119391
-0.133537
-0.147207
-0.160536
-0.173121
-0.184301
-0.19311
-0.198324
-0.198558
-0.19243
-0.178761
-0.156771
-0.126268
-0.0877777
-0.0426433
0.00699544
0.058326
0.108082
0.152835
0.18937
0.213189
0.222821
0.218242
0.20056
0.171851
0.136165
-0.0668544
-0.0857996
-0.103792
-0.118555
-0.129864
-0.137166
-0.141089
-0.142687
-0.143632
-0.144771
-0.146641
-0.149286
-0.152208
-0.154387
-0.154413
-0.150702
-0.141751
-0.126402
-0.104073
-0.0749577
-0.0401082
-0.00140114
0.0386173
0.076983
0.11067
0.135512
0.149629
0.152317
0.144032
0.12607
0.101538
-0.0736358
-0.0920564
-0.107444
-0.117198
-0.121115
-0.118973
-0.111992
-0.102125
-0.0923183
-0.0845553
-0.0804455
-0.0809275
-0.0861231
-0.0952928
-0.106937
-0.119012
-0.129227
-0.135369
-0.135628
-0.128879
-0.114865
-0.0942699
-0.0686356
-0.0401812
-0.0114954
0.0140541
0.0341822
0.0473551
0.0531816
0.0518323
0.0449792
-0.0614992
-0.0742677
-0.0826934
-0.0843606
-0.0792712
-0.0676145
-0.0511131
-0.0323451
-0.0149041
-0.00150964
0.00552755
0.00466114
-0.00468524
-0.0220232
-0.0458631
-0.0739077
-0.103349
-0.131216
-0.154729
-0.171631
-0.180441
-0.180607
-0.172516
-0.157391
-0.137073
-0.113693
-0.0896657
-0.0671832
-0.0474344
-0.0314155
-0.0191051
-0.0330874
-0.0363934
-0.035109
-0.027458
-0.0137222
0.00557446
0.0285012
0.0523613
0.073754
0.0898328
0.0981143
0.0968191
0.0850886
0.0631073
0.0320833
-0.00588793
-0.0480604
-0.091331
-0.132563
-0.168884
-0.19796
-0.218192
-0.228806
-0.229845
-0.222083
-0.206076
-0.183863
-0.157808
-0.129597
-0.101107
-0.0738478
0.00531371
0.0131121
0.0246276
0.0407
0.0608175
0.0843264
0.109522
0.134214
0.156054
0.172741
0.182183
0.182741
0.173412
0.153949
0.124895
0.0875481
0.0438448
-0.00379839
-0.0526889
-0.100054
-0.143259
-0.180006
-0.20848
-0.227453
-0.236344
-0.233944
-0.221296
-0.200264
-0.172568
-0.140448
-0.106552
0.0455815
0.0637063
0.0837231
0.105444
0.128273
0.15169
0.17468
0.196143
0.21547
0.231483
0.242952
0.24868
0.247601
0.238884
0.222031
0.196968
0.164112
0.124412
0.0793382
0.030855
-0.0186788
-0.0666649
-0.11045
-0.147534
-0.1758
-0.192227
-0.196312
-0.188763
-0.170853
-0.144619
-0.11332
0.0798016
0.105397
0.130451
0.153852
0.1751
0.194041
0.210719
0.225527
0.239942
0.254271
0.268429
0.28184
0.293417
0.301647
0.304748
0.300902
0.288548
0.266645
0.234908
0.193984
0.145512
0.0920409
0.0368318
-0.0164491
-0.0641294
-0.101485
-0.126154
-0.137269
-0.135305
-0.12167
-0.0997454
0.102125
0.131076
0.156884
0.177747
0.193408
0.204209
0.211416
0.217037
0.22458
0.235905
0.252131
0.273351
0.298498
0.325396
0.350977
0.371659
0.383835
0.384374
0.371092
0.34314
0.301217
0.247595
0.185895
0.120722
0.0571087
0.00122128
-0.0427876
-0.0724212
-0.0872492
-0.0878846
-0.0774858
0.110057
0.138096
0.160659
0.175535
0.182778
0.183196
0.17919
0.174194
0.173319
0.179755
0.195677
0.22179
0.25712
0.299014
0.34341
0.385319
0.419472
0.441006
0.44612
0.432634
0.400341
0.351107
0.28866
0.218172
0.145606
0.0781241
0.0212088
-0.0213624
-0.0483966
-0.0598198
-0.0583977
0.104868
0.128675
0.145308
0.152393
0.150247
0.139964
0.12476
0.109031
0.0988061
0.0981733
0.110055
0.135668
0.174245
0.223004
0.277436
0.331834
0.380019
0.416122
0.435343
0.434612
0.413017
0.371965
0.314992
0.247332
0.175235
0.106222
0.0463298
-3.19942e-05
-0.0312298
-0.0467887
-0.0490278
0.0909769
0.109005
0.119029
0.118658
0.108326
0.0891379
0.0646218
0.0395164
0.0199988
0.0105092
0.0143543
0.0331412
0.0664718
0.111885
0.165117
0.220612
0.272224
0.313996
0.34091
0.349563
0.33861
0.308949
0.263578
0.207191
0.145551
0.0857322
0.0334211
-0.00711308
-0.0341663
-0.0471735
-0.0479691
0.0744021
0.0871459
0.0919859
0.0865572
0.0712008
0.0467301
0.0164335
-0.0152562
-0.0427052
-0.0616469
-0.0687378
-0.0620846
-0.041543
-0.00880648
0.0327901
0.0786878
0.123693
0.162637
0.19103
0.205652
0.204956
0.189257
0.160641
0.122656
0.0798101
0.0378539
0.00129728
-0.0264012
-0.0437695
-0.0503447
-0.0473817
0.060715
0.0703219
0.0729485
0.0662212
0.0501792
0.0251019
-0.00644863
-0.0408825
-0.0735893
-0.100886
-0.119663
-0.127824
-0.124554
-0.110444
-0.0873879
-0.0583142
-0.0267869
0.00345988
0.0289993
0.0471525
0.05631
0.056103
0.0473882
0.0320757
0.0128163
-0.00673343
-0.0237943
-0.0361457
-0.0426896
-0.0430777
-0.0378236
0.0532806
0.0626371
0.0665127
0.0624699
0.0500995
0.0290238
0.000764625
-0.0322581
-0.0666701
-0.0996088
-0.128365
-0.150712
-0.165136
-0.170985
-0.168486
-0.158655
-0.143115
-0.123871
-0.103048
-0.0826312
-0.064252
-0.0490336
-0.0375214
-0.029696
-0.0250566
-0.0225194
-0.0212211
-0.0202803
-0.0189528
-0.0168715
-0.0136227
0.0517399
0.0631124
0.0707439
0.0721258
0.0663776
0.0525059
0.03093
0.0028414
-0.0295769
-0.0643333
-0.0991921
-0.131894
-0.160339
-0.182763
-0.197863
-0.204875
-0.203604
-0.194425
-0.178228
-0.156336
-0.130395
-0.102234
-0.0737136
-0.0465916
-0.0223816
-0.00254651
0.0120807
0.0212436
0.0254531
0.0252686
0.022019
0.0532629
0.0675083
0.0796505
0.0871802
0.0888481
0.0832173
0.0697853
0.0486985
0.0211716
-0.0115734
-0.0477748
-0.0852583
-0.121579
-0.154213
-0.180755
-0.199131
-0.20779
-0.205871
-0.193317
-0.170932
-0.140345
-0.103894
-0.0644148
-0.0249802
0.0114008
0.0412557
0.0625688
0.0743135
0.0769244
0.0712328
0.0594277
0.0526215
0.0685203
0.0835006
0.0953124
0.102554
0.103693
0.0976304
0.0838513
0.0629172
0.0354753
0.00284095
-0.0330615
-0.0698052
-0.104642
-0.134734
-0.157424
-0.170505
-0.172479
-0.162755
-0.141786
-0.111084
-0.0731167
-0.0310799
0.0114163
0.0507268
0.0823886
0.103883
0.114014
0.113106
0.102216
0.0840007
0.0460435
0.060996
0.075761
0.0885118
0.0979922
0.102766
0.101723
0.0940654
0.0799824
0.0597559
0.0342947
0.00511501
-0.0257334
-0.0558183
-0.0825362
-0.103369
-0.11615
-0.119327
-0.112165
-0.0949022
-0.0687844
-0.0359867
0.000596694
0.0376367
0.071741
0.0986342
0.116084
0.122693
0.118962
0.105895
0.0861649
0.033849
0.0452505
0.0567864
0.0671799
0.0755156
0.0806816
0.0818133
0.078276
0.0700735
0.0573033
0.040525
0.0207585
-0.000561703
-0.0216929
-0.0407376
-0.0558333
-0.0653545
-0.0681091
-0.0634996
-0.0516418
-0.0333994
-0.0103333
0.0154538
0.0415237
0.0653883
0.0839404
0.0953851
0.0987062
0.0944286
0.0832011
0.0673835
-0.0888141
-0.113868
-0.13586
-0.152359
-0.162434
-0.165173
-0.160921
-0.150566
-0.136394
-0.119727
-0.101747
-0.0832972
-0.0647871
-0.0461593
-0.0269588
-0.00647705
0.0160382
0.0411717
0.0691434
0.099632