# vtk DataFile Version 2.0
Func
ASCII
DATASET RECTILINEAR_GRID
DIMENSIONS 51 51 51
X_COORDINATES 51 double
-7.85398
-7.53982
-7.22566
-6.9115
-6.59734
-6.28319
-5.96903
-5.65487
-5.34071
-5.02655
-4.71239
-4.39823
-4.08407
-3.76991
-3.45575
-3.14159
-2.82743
-2.51327
-2.19911
-1.88496
-1.5708
-1.25664
-0.942478
-0.628319
-0.314159
-8.88178e-16
0.314159
0.628319
0.942478
1.25664
1.5708
1.88496
2.19911
2.51327
2.82743
3.14159
3.45575
3.76991
4.08407
4.39823
4.71239
5.02655
5.34071
5.65487
5.96903
6.28319
6.59734
6.9115
7.22566
7.53982
7.85398
Y_COORDINATES 51 double
-7.85398
-7.53982
-7.22566
-6.9115
-6.59734
-6.28319
-5.96903
-5.65487
-5.34071
-5.02655
-4.71239
-4.39823
-4.08407
-3.76991
-3.45575
-3.14159
-2.82743
-2.51327
-2.19911
-1.88496
-1.5708
-1.25664
-0.942478
-0.628319
-0.314159
-8.88178e-16
0.314159
0.628319
0.942478
1.25664
1.5708
1.88496
2.19911
2.51327
2.82743
3.14159
3.45575
3.76991
4.08407
4.39823
4.71239
5.02655
5.34071
5.65487
5.96903
6.28319
6.59734
6.9115
7.22566
7.53982
7.85398
Z_COORDINATES 51 double
-7.85398
-7.53982
-7.22566
-6.9115
-6.59734
-6.28319
-5.96903
-5.65487
-5.34071
-5.02655
-4.71239
-4.39823
-4.08407
-3.76991
-3.45575
-3.14159
-2.82743
-2.51327
-2.19911
-1.88496
-1.5708
-1.25664
-0.942478
-0.628319
-0.314159
-8.88178e-16
0.314159
0.628319
0.942478
1.25664
1.5708
1.88496
2.19911
2.51327
2.82743
3.14159
3.45575
3.76991
4.08407
4.39823
4.71239
5.02655
5.34071
5.65487
5.96903
6.28319
6.59734
6.9115
7.22566
7.53982
7.85398
POINT_DATA 132651
SCALARS data double 1
LOOKUP_TABLE default
3.69811e-07
3.98626e-07
4.29192e-07
4.61507e-07
4.95538e-07
5.31226e-07
5.68477e-07
6.07161e-07
6.47105e-07
6.88092e-07
7.29861e-07
7.721e-07
8.14455e-07
8.56524e-07
8.97865e-07
9.38005e-07
9.76441e-07
1.01266e-06
1.04614e-06
1.07639e-06
1.10291e-06
1.12527e-06
1.14308e-06
1.15604e-06
1.16392e-06
1.16656e-06
1.16392e-06
1.15604e-06
1.14308e-06
1.12527e-06
1.10291e-06
1.07639e-06
1.04614e-06
1.01266e-06
9.76441e-07
9.38005e-07
8.97865e-07
8.56524e-07
8.14455e-07
7.721e-07
7.29861e-07
6.88092e-07
6.47105e-07
6.07161e-07
5.68477e-07
5.31226e-07
4.95538e-07
4.61507e-07
4.29192e-07
3.98626e-07
3.69811e-07
3.82999e-07
4.13684e-07
4.46327e-07
4.80932e-07
5.17479e-07
5.55915e-07
5.96148e-07
6.38047e-07
6.81432e-07
7.26075e-07
7.71694e-07
8.17951e-07
8.64454e-07
9.1076e-07
9.56374e-07
1.00076e-06
1.04336e-06
1.08358e-06
1.12083e-06
1.15452e-06
1.18412e-06
1.20909e-06
1.22902e-06
1.24352e-06
1.25234e-06
1.25529e-06
1.25234e-06
1.24352e-06
1.22902e-06
1.20909e-06
1.18412e-06
1.15452e-06
1.12083e-06
1.08358e-06
1.04336e-06
1.00076e-06
9.56374e-07
9.1076e-07
8.64454e-07
8.17951e-07
7.71694e-07
7.26075e-07
6.81432e-07
6.38047e-07
5.96148e-07
5.55915e-07
5.17479e-07
4.80932e-07
4.46327e-07
4.13684e-07
3.82999e-07
3.9623e-07
4.2886e-07
4.63669e-07
5.00676e-07
5.39872e-07
5.81213e-07
6.24612e-07
6.69939e-07
7.1701e-07
7.65583e-07
8.15357e-07
8.65966e-07
9.16981e-07
9.6791e-07
1.0182e-06
1.06726e-06
1.11444e-06
1.15908e-06
1.2005e-06
1.23803e-06
1.27103e-06
1.29893e-06
1.32121e-06
1.33743e-06
1.3473e-06
1.35061e-06
1.3473e-06
1.33743e-06
1.32121e-06
1.29893e-06
1.27103e-06
1.23803e-06
1.2005e-06
1.15908e-06
1.11444e-06
1.06726e-06
1.0182e-06
9.6791e-07
9.16981e-07
8.65966e-07
8.15357e-07
7.65583e-07
7.1701e-07
6.69939e-07
6.24612e-07
5.81213e-07
5.39872e-07
5.00676e-07
4.63669e-07
4.2886e-07
3.9623e-07
4.09449e-07
4.44091e-07
4.81153e-07
5.20668e-07
5.62642e-07
6.07043e-07
6.53792e-07
7.02761e-07
7.53764e-07
8.06547e-07
8.6079e-07
9.16099e-07
9.72004e-07
1.02796e-06
1.08336e-06
1.13753e-06
1.18975e-06
1.23926e-06
1.28528e-06
1.32706e-06
1.36386e-06
1.395e-06
1.41989e-06
1.43803e-06
1.44907e-06
1.45278e-06
1.44907e-06
1.43803e-06
1.41989e-06
1.395e-06
1.36386e-06
1.32706e-06
1.28528e-06
1.23926e-06
1.18975e-06
1.13753e-06
1.08336e-06
1.02796e-06
9.72004e-07
9.16099e-07
8.6079e-07
8.06547e-07
7.53764e-07
7.02761e-07
6.53792e-07
6.07043e-07
5.62642e-07
5.20668e-07
4.81153e-07
4.44091e-07
4.09449e-07
4.22595e-07
4.59311e-07
4.98704e-07
5.40827e-07
5.85702e-07
6.33313e-07
6.83591e-07
7.36415e-07
7.91595e-07
8.48872e-07
9.07904e-07
9.6827e-07
1.02946e-06
1.09087e-06
1.15183e-06
1.21158e-06
1.26931e-06
1.32417e-06
1.37526e-06
1.42173e-06
1.46272e-06
1.49746e-06
1.52525e-06
1.54553e-06
1.55787e-06
1.56202e-06
1.55787e-06
1.54553e-06
1.52525e-06
1.49746e-06
1.46272e-06
1.42173e-06
1.37526e-06
1.32417e-06
1.26931e-06
1.21158e-06
1.15183e-06
1.09087e-06
1.02946e-06
9.6827e-07
9.07904e-07
8.48872e-07
7.91595e-07
7.36415e-07
6.83591e-07
6.33313e-07
5.85702e-07
5.40827e-07
4.98704e-07
4.59311e-07
4.22595e-07
4.35605e-07
4.74448e-07
5.16242e-07
5.61063e-07
6.08955e-07
6.59917e-07
7.13897e-07
7.7078e-07
8.30381e-07
8.92432e-07
9.56576e-07
1.02236e-06
1.08923e-06
1.15653e-06
1.22351e-06
1.28933e-06
1.35308e-06
1.41379e-06
1.47046e-06
1.52208e-06
1.56769e-06
1.6064e-06
1.63741e-06
1.66005e-06
1.67384e-06
1.67847e-06
1.67384e-06
1.66005e-06
1.63741e-06
1.6064e-06
1.56769e-06
1.52208e-06
1.47046e-06
1.41379e-06
1.35308e-06
1.28933e-06
1.22351e-06
1.15653e-06
1.08923e-06
1.02236e-06
9.56576e-07
8.92432e-07
8.30381e-07
7.7078e-07
7.13897e-07
6.59917e-07
6.08955e-07
5.61063e-07
5.16242e-07
4.74448e-07
4.35605e-07
4.48415e-07
4.89427e-07
5.33681e-07
5.8128e-07
6.3229e-07
6.86734e-07
7.44577e-07
8.05716e-07
8.69972e-07
9.37072e-07
1.00664e-06
1.0782e-06
1.15116e-06
1.22479e-06
1.29827e-06
1.37067e-06
1.44096e-06
1.50805e-06
1.5708e-06
1.62807e-06
1.67876e-06
1.72184e-06
1.75638e-06
1.78163e-06
1.79702e-06
1.80219e-06
1.79702e-06
1.78163e-06
1.75638e-06
1.72184e-06
1.67876e-06
1.62807e-06
1.5708e-06
1.50805e-06
1.44096e-06
1.37067e-06
1.29827e-06
1.22479e-06
1.15116e-06
1.0782e-06
1.00664e-06
9.37072e-07
8.69972e-07
8.05716e-07
7.44577e-07
6.86734e-07
6.3229e-07
5.8128e-07
5.33681e-07
4.89427e-07
4.48415e-07
4.60957e-07
5.04168e-07
5.50929e-07
6.01371e-07
6.55589e-07
7.1363e-07
7.75482e-07
8.41059e-07
9.10189e-07
9.826e-07
1.05791e-06
1.1356e-06
1.21503e-06
1.29544e-06
1.3759e-06
1.45538e-06
1.53274e-06
1.60674e-06
1.67611e-06
1.73955e-06
1.79579e-06
1.84365e-06
1.88208e-06
1.91019e-06
1.92733e-06
1.93309e-06
1.92733e-06
1.91019e-06
1.88208e-06
1.84365e-06
1.79579e-06
1.73955e-06
1.67611e-06
1.60674e-06
1.53274e-06
1.45538e-06
1.3759e-06
1.29544e-06
1.21503e-06
1.1356e-06
1.05791e-06
9.826e-07
9.10189e-07
8.41059e-07
7.75482e-07
7.1363e-07
6.55589e-07
6.01371e-07
5.50929e-07
5.04168e-07
4.60957e-07
4.73163e-07
5.18592e-07
5.67892e-07
6.21226e-07
6.78722e-07
7.40457e-07
8.06445e-07
8.76621e-07
9.50826e-07
1.02879e-06
1.11012e-06
1.19428e-06
1.28058e-06
1.36818e-06
1.45609e-06
1.54317e-06
1.62813e-06
1.7096e-06
1.78613e-06
1.85625e-06
1.91853e-06
1.9716e-06
2.01426e-06
2.0455e-06
2.06456e-06
2.07096e-06
2.06456e-06
2.0455e-06
2.01426e-06
1.9716e-06
1.91853e-06
1.85625e-06
1.78613e-06
1.7096e-06
1.62813e-06
1.54317e-06
1.45609e-06
1.36818e-06
1.28058e-06
1.19428e-06
1.11012e-06
1.02879e-06
9.50826e-07
8.76621e-07
8.06445e-07
7.40457e-07
6.78722e-07
6.21226e-07
5.67892e-07
5.18592e-07
4.73163e-07
4.84967e-07
5.32616e-07
5.8447e-07
6.40728e-07
7.01553e-07
7.67056e-07
8.37282e-07
9.12193e-07
9.91646e-07
1.07538e-06
1.16299e-06
1.25393e-06
1.34745e-06
1.44267e-06
1.53848e-06
1.63363e-06
1.72671e-06
1.81618e-06
1.90041e-06
1.97774e-06
2.04654e-06
2.10525e-06
2.15251e-06
2.18714e-06
2.20829e-06
2.2154e-06
2.20829e-06
2.18714e-06
2.15251e-06
2.10525e-06
2.04654e-06
1.97774e-06
1.90041e-06
1.81618e-06
1.72671e-06
1.63363e-06
1.53848e-06
1.44267e-06
1.34745e-06
1.25393e-06
1.16299e-06
1.07538e-06
9.91646e-07
9.12193e-07
8.37282e-07
7.67056e-07
7.01553e-07
6.40728e-07
5.8447e-07
5.32616e-07
4.84967e-07
4.96305e-07
5.46161e-07
6.00566e-07
6.59758e-07
7.23939e-07
7.93258e-07
8.67796e-07
9.47545e-07
1.03239e-06
1.12207e-06
1.21619e-06
1.31417e-06
1.41525e-06
1.51844e-06
1.62258e-06
1.72627e-06
1.82797e-06
1.92595e-06
2.0184e-06
2.10344e-06
2.17923e-06
2.24401e-06
2.29621e-06
2.33451e-06
2.3579e-06
2.36577e-06
2.3579e-06
2.33451e-06
2.29621e-06
2.24401e-06
2.17923e-06
2.10344e-06
2.0184e-06
1.92595e-06
1.82797e-06
1.72627e-06
1.62258e-06
1.51844e-06
1.41525e-06
1.31417e-06
1.21619e-06
1.12207e-06
1.03239e-06
9.47545e-07
8.67796e-07
7.93258e-07
7.23939e-07
6.59758e-07
6.00566e-07
5.46161e-07
4.96305e-07
5.07116e-07
5.59149e-07
6.16081e-07
6.78194e-07
7.45731e-07
8.18885e-07
8.97775e-07
9.8243e-07
1.07276e-06
1.16853e-06
1.26934e-06
1.37459e-06
1.48349e-06
1.59498e-06
1.70781e-06
1.82046e-06
1.93122e-06
2.03819e-06
2.13934e-06
2.23257e-06
2.3158e-06
2.38705e-06
2.44453e-06
2.48674e-06
2.51254e-06
2.52122e-06
2.51254e-06
2.48674e-06
2.44453e-06
2.38705e-06
2.3158e-06
2.23257e-06
2.13934e-06
2.03819e-06
1.93122e-06
1.82046e-06
1.70781e-06
1.59498e-06
1.48349e-06
1.37459e-06
1.26934e-06
1.16853e-06
1.07276e-06
9.8243e-07
8.97775e-07
8.18885e-07
7.45731e-07
6.78194e-07
6.16081e-07
5.59149e-07
5.07116e-07
5.17342e-07
5.71504e-07
6.30921e-07
6.95916e-07
7.66781e-07
8.43753e-07
9.26998e-07
1.01658e-06
1.11245e-06
1.21439e-06
1.32201e-06
1.4347e-06
1.55162e-06
1.67168e-06
1.7935e-06
1.91545e-06
2.03566e-06
2.15202e-06
2.2623e-06
2.36414e-06
2.45522e-06
2.5333e-06
2.59637e-06
2.64273e-06
2.67108e-06
2.68063e-06
2.67108e-06
2.64273e-06
2.59637e-06
2.5333e-06
2.45522e-06
2.36414e-06
2.2623e-06
2.15202e-06
2.03566e-06
1.91545e-06
1.7935e-06
1.67168e-06
1.55162e-06
1.4347e-06
1.32201e-06
1.21439e-06
1.11245e-06
1.01658e-06
9.26998e-07
8.43753e-07
7.66781e-07
6.95916e-07
6.30921e-07
5.71504e-07
5.17342e-07
5.26933e-07
5.83159e-07
6.44993e-07
7.12807e-07
7.8694e-07
8.67679e-07
9.55237e-07
1.04973e-06
1.15113e-06
1.25926e-06
1.37374e-06
1.49396e-06
1.61904e-06
1.74783e-06
1.87886e-06
2.01038e-06
2.14033e-06
2.26642e-06
2.38616e-06
2.49696e-06
2.59622e-06
2.68145e-06
2.75037e-06
2.80108e-06
2.83211e-06
2.84256e-06
2.83211e-06
2.80108e-06
2.75037e-06
2.68145e-06
2.59622e-06
2.49696e-06
2.38616e-06
2.26642e-06
2.14033e-06
2.01038e-06
1.87886e-06
1.74783e-06
1.61904e-06
1.49396e-06
1.37374e-06
1.25926e-06
1.15113e-06
1.04973e-06
9.55237e-07
8.67679e-07
7.8694e-07
7.12807e-07
6.44993e-07
5.83159e-07
5.26933e-07
5.35846e-07
5.94051e-07
6.58214e-07
7.28755e-07
8.06063e-07
8.90478e-07
9.82263e-07
1.08158e-06
1.18845e-06
1.30273e-06
1.42405e-06
1.5518e-06
1.68508e-06
1.82267e-06
1.96302e-06
2.10425e-06
2.24413e-06
2.38015e-06
2.50961e-06
2.62962e-06
2.73732e-06
2.82992e-06
2.90489e-06
2.9601e-06
2.9939e-06
3.00529e-06
2.9939e-06
2.9601e-06
2.90489e-06
2.82992e-06
2.73732e-06
2.62962e-06
2.50961e-06
2.38015e-06
2.24413e-06
2.10425e-06
1.96302e-06
1.82267e-06
1.68508e-06
1.5518e-06
1.42405e-06
1.30273e-06
1.18845e-06
1.08158e-06
9.82263e-07
8.90478e-07
8.06063e-07
7.28755e-07
6.58214e-07
5.94051e-07
5.35846e-07
5.44043e-07
6.04124e-07
6.70505e-07
7.43654e-07
8.2401e-07
9.11968e-07
1.00785e-06
1.11185e-06
1.22406e-06
1.34436e-06
1.47241e-06
1.60759e-06
1.749e-06
1.89535e-06
2.04501e-06
2.19597e-06
2.34583e-06
2.49188e-06
2.63115e-06
2.76051e-06
2.87677e-06
2.97687e-06
3.05802e-06
3.11782e-06
3.15446e-06
3.1668e-06
3.15446e-06
3.11782e-06
3.05802e-06
2.97687e-06
2.87677e-06
2.76051e-06
2.63115e-06
2.49188e-06
2.34583e-06
2.19597e-06
2.04501e-06
1.89535e-06
1.749e-06
1.60759e-06
1.47241e-06
1.34436e-06
1.22406e-06
1.11185e-06
1.00785e-06
9.11968e-07
8.2401e-07
7.43654e-07
6.70505e-07
6.04124e-07
5.44043e-07
5.51494e-07
6.13332e-07
6.81798e-07
7.57406e-07
8.40651e-07
9.31978e-07
1.03176e-06
1.14027e-06
1.25761e-06
1.38372e-06
1.51829e-06
1.66071e-06
1.81004e-06
1.96498e-06
2.1238e-06
2.28435e-06
2.44409e-06
2.60009e-06
2.74913e-06
2.8878e-06
3.01263e-06
3.12025e-06
3.20759e-06
3.272e-06
3.31149e-06
3.3248e-06
3.31149e-06
3.272e-06
3.20759e-06
3.12025e-06
3.01263e-06
2.8878e-06
2.74913e-06
2.60009e-06
2.44409e-06
2.28435e-06
2.1238e-06
1.96498e-06
1.81004e-06
1.66071e-06
1.51829e-06
1.38372e-06
1.25761e-06
1.14027e-06
1.03176e-06
9.31978e-07
8.40651e-07
7.57406e-07
6.81798e-07
6.13332e-07
5.51494e-07
5.58178e-07
6.21637e-07
6.92031e-07
7.69926e-07
8.55863e-07
9.50344e-07
1.0538e-06
1.16654e-06
1.28874e-06
1.42038e-06
1.56115e-06
1.71049e-06
1.86744e-06
2.03064e-06
2.19829e-06
2.36815e-06
2.53748e-06
2.70317e-06
2.86176e-06
3.00955e-06
3.14279e-06
3.2578e-06
3.35122e-06
3.42018e-06
3.46248e-06
3.47674e-06
3.46248e-06
3.42018e-06
3.35122e-06
3.2578e-06
3.14279e-06
3.00955e-06
2.86176e-06
2.70317e-06
2.53748e-06
2.36815e-06
2.19829e-06
2.03064e-06
1.86744e-06
1.71049e-06
1.56115e-06
1.42038e-06
1.28874e-06
1.16654e-06
1.0538e-06
9.50344e-07
8.55863e-07
7.69926e-07
6.92031e-07
6.21637e-07
5.58178e-07
5.64081e-07
6.29007e-07
7.01156e-07
7.81135e-07
8.69538e-07
9.66915e-07
1.07375e-06
1.19041e-06
1.31712e-06
1.45389e-06
1.60047e-06
1.75629e-06
1.92039e-06
2.09138e-06
2.26739e-06
2.44606e-06
2.62453e-06
2.79946e-06
2.96717e-06
3.12369e-06
3.26499e-06
3.3871e-06
3.48638e-06
3.55972e-06
3.60473e-06
3.61991e-06
3.60473e-06
3.55972e-06
3.48638e-06
3.3871e-06
3.26499e-06
3.12369e-06
2.96717e-06
2.79946e-06
2.62453e-06
2.44606e-06
2.26739e-06
2.09138e-06
1.92039e-06
1.75629e-06
1.60047e-06
1.45389e-06
1.31712e-06
1.19041e-06
1.07375e-06
9.66915e-07
8.69538e-07
7.81135e-07
7.01156e-07
6.29007e-07
5.64081e-07
5.69193e-07
6.35421e-07
7.0913e-07
7.9097e-07
8.81578e-07
9.81556e-07
1.09143e-06
1.21164e-06
1.34243e-06
1.48387e-06
1.63574e-06
1.79748e-06
1.96813e-06
2.14628e-06
2.33e-06
2.51682e-06
2.70374e-06
2.88725e-06
3.06344e-06
3.22812e-06
3.37694e-06
3.5057e-06
3.61047e-06
3.68791e-06
3.73546e-06
3.7515e-06
3.73546e-06
3.68791e-06
3.61047e-06
3.5057e-06
3.37694e-06
3.22812e-06
3.06344e-06
2.88725e-06
2.70374e-06
2.51682e-06
2.33e-06
2.14628e-06
1.96813e-06
1.79748e-06
1.63574e-06
1.48387e-06
1.34243e-06
1.21164e-06
1.09143e-06
9.81556e-07
8.81578e-07
7.9097e-07
7.0913e-07
6.35421e-07
5.69193e-07
5.73511e-07
6.40862e-07
7.15921e-07
7.99375e-07
8.91902e-07
9.94148e-07
1.10669e-06
1.23e-06
1.36438e-06
1.50993e-06
1.66647e-06
1.83346e-06
2.00994e-06
2.19447e-06
2.38506e-06
2.57917e-06
2.77367e-06
2.96489e-06
3.14873e-06
3.32075e-06
3.47637e-06
3.61113e-06
3.72088e-06
3.80204e-06
3.8519e-06
3.86871e-06
3.8519e-06
3.80204e-06
3.72088e-06
3.61113e-06
3.47637e-06
3.32075e-06
3.14873e-06
2.96489e-06
2.77367e-06
2.57917e-06
2.38506e-06
2.19447e-06
2.00994e-06
1.83346e-06
1.66647e-06
1.50993e-06
1.36438e-06
1.23e-06
1.10669e-06
9.94148e-07
8.91902e-07
7.99375e-07
7.15921e-07
6.40862e-07
5.73511e-07
5.77036e-07
6.4532e-07
7.21504e-07
8.06306e-07
9.0044e-07
1.00459e-06
1.11937e-06
1.24529e-06
1.38271e-06
1.53175e-06
1.69225e-06
1.8637e-06
2.04515e-06
2.23512e-06
2.4316e-06
2.63197e-06
2.83298e-06
3.03084e-06
3.22126e-06
3.39962e-06
3.56113e-06
3.70109e-06
3.81514e-06
3.89953e-06
3.95139e-06
3.96888e-06
3.95139e-06
3.89953e-06
3.81514e-06
3.70109e-06
3.56113e-06
3.39962e-06
3.22126e-06
3.03084e-06
2.83298e-06
2.63197e-06
2.4316e-06
2.23512e-06
2.04515e-06
1.8637e-06
1.69225e-06
1.53175e-06
1.38271e-06
1.24529e-06
1.11937e-06
1.00459e-06
9.0044e-07
8.06306e-07
7.21504e-07
6.4532e-07
5.77036e-07
5.79772e-07
6.48791e-07
7.25862e-07
8.1173e-07
9.07136e-07
1.0128e-06
1.12936e-06
1.25736e-06
1.3972e-06
1.54902e-06
1.7127e-06
1.88774e-06
2.07317e-06
2.26754e-06
2.46877e-06
2.67418e-06
2.88047e-06
3.08371e-06
3.27948e-06
3.46299e-06
3.62929e-06
3.77348e-06
3.89104e-06
3.97806e-06
4.03154e-06
4.04958e-06
4.03154e-06
3.97806e-06
3.89104e-06
3.77348e-06
3.62929e-06
3.46299e-06
3.27948e-06
3.08371e-06
2.88047e-06
2.67418e-06
2.46877e-06
2.26754e-06
2.07317e-06
1.88774e-06
1.7127e-06
1.54902e-06
1.3972e-06
1.25736e-06
1.12936e-06
1.0128e-06
9.07136e-07
8.1173e-07
7.25862e-07
6.48791e-07
5.79772e-07
5.81721e-07
6.5127e-07
7.28982e-07
8.15621e-07
9.11949e-07
1.0187e-06
1.13656e-06
1.26608e-06
1.40768e-06
1.56154e-06
1.72754e-06
1.90519e-06
2.09355e-06
2.29113e-06
2.49585e-06
2.70497e-06
2.91514e-06
3.12234e-06
3.32206e-06
3.50938e-06
3.67921e-06
3.82653e-06
3.94669e-06
4.03566e-06
4.09034e-06
4.10879e-06
4.09034e-06
4.03566e-06
3.94669e-06
3.82653e-06
3.67921e-06
3.50938e-06
3.32206e-06
3.12234e-06
2.91514e-06
2.70497e-06
2.49585e-06
2.29113e-06
2.09355e-06
1.90519e-06
1.72754e-06
1.56154e-06
1.40768e-06
1.26608e-06
1.13656e-06
1.0187e-06
9.11949e-07
8.15621e-07
7.28982e-07
6.5127e-07
5.81721e-07
5.82889e-07
6.52758e-07
7.30857e-07
8.17962e-07
9.14848e-07
1.02227e-06
1.14091e-06
1.27135e-06
1.41402e-06
1.56911e-06
1.73653e-06
1.91578e-06
2.10592e-06
2.30546e-06
2.51231e-06
2.72371e-06
2.93625e-06
3.14588e-06
3.34802e-06
3.53767e-06
3.70967e-06
3.85892e-06
3.98067e-06
4.07083e-06
4.12626e-06
4.14497e-06
4.12626e-06
4.07083e-06
3.98067e-06
3.85892e-06
3.70967e-06
3.53767e-06
3.34802e-06
3.14588e-06
2.93625e-06
2.72371e-06
2.51231e-06
2.30546e-06
2.10592e-06
1.91578e-06
1.73653e-06
1.56911e-06
1.41402e-06
1.27135e-06
1.14091e-06
1.02227e-06
9.14848e-07
8.17962e-07
7.30857e-07
6.52758e-07
5.82889e-07
5.83278e-07
6.53254e-07
7.31483e-07
8.18744e-07
9.15817e-07
1.02346e-06
1.14236e-06
1.27311e-06
1.41614e-06
1.57165e-06
1.73954e-06
1.91932e-06
2.11007e-06
2.31027e-06
2.51784e-06
2.73e-06
2.94334e-06
3.15379e-06
3.35674e-06
3.54718e-06
3.71991e-06
3.86981e-06
3.9921e-06
4.08267e-06
4.13834e-06
4.15713e-06
4.13834e-06
4.08267e-06
3.9921e-06
3.86981e-06
3.71991e-06
3.54718e-06
3.35674e-06
3.15379e-06
2.94334e-06
2.73e-06
2.51784e-06
2.31027e-06
2.11007e-06
1.91932e-06
1.73954e-06
1.57165e-06
1.41614e-06
1.27311e-06
1.14236e-06
1.02346e-06
9.15817e-07
8.18744e-07
7.31483e-07
6.53254e-07
5.83278e-07
5.82889e-07
6.52758e-07
7.30857e-07
8.17962e-07
9.14848e-07
1.02227e-06
1.14091e-06
1.27135e-06
1.41402e-06
1.56911e-06
1.73653e-06
1.91578e-06
2.10592e-06
2.30546e-06
2.51231e-06
2.72371e-06
2.93625e-06
3.14588e-06
3.34802e-06
3.53767e-06
3.70967e-06
3.85892e-06
3.98067e-06
4.07083e-06
4.12626e-06
4.14497e-06
4.12626e-06
4.07083e-06
3.98067e-06
3.85892e-06
3.70967e-06
3.53767e-06
3.34802e-06
3.14588e-06
2.93625e-06
2.72371e-06
2.51231e-06
2.30546e-06
2.10592e-06
1.91578e-06
1.73653e-06
1.56911e-06
1.41402e-06
1.27135e-06
1.14091e-06
1.02227e-06
9.14848e-07
8.17962e-07
7.30857e-07
6.52758e-07
5.82889e-07
5.81721e-07
6.5127e-07
7.28982e-07
8.15621e-07
9.11949e-07
1.0187e-06
1.13656e-06
1.26608e-06
1.40768e-06
1.56154e-06
1.72754e-06
1.90519e-06
2.09355e-06
2.29113e-06
2.49585e-06
2.70497e-06
2.91514e-06
3.12234e-06
3.32206e-06
3.50938e-06
3.67921e-06
3.82653e-06
3.94669e-06
4.03566e-06
4.09034e-06
4.10879e-06
4.09034e-06
4.03566e-06
3.94669e-06
3.82653e-06
3.67921e-06
3.50938e-06
3.32206e-06
3.12234e-06
2.91514e-06
2.70497e-06
2.49585e-06
2.29113e-06
2.09355e-06
1.90519e-06
1.72754e-06
1.56154e-06
1.40768e-06
1.26608e-06
1.13656e-06
1.0187e-06
9.11949e-07
8.15621e-07
7.28982e-07
6.5127e-07
5.81721e-07
5.79772e-07
6.48791e-07
7.25862e-07
8.1173e-07
9.07136e-07
1.0128e-06
1.12936e-06
1.25736e-06
1.3972e-06
1.54902e-06
1.7127e-06
1.88774e-06
2.07317e-06
2.26754e-06
2.46877e-06
2.67418e-06
2.88047e-06
3.08371e-06
3.27948e-06
3.46299e-06
3.62929e-06
3.77348e-06
3.89104e-06
3.97806e-06
4.03154e-06
4.04958e-06
4.03154e-06
3.97806e-06
3.89104e-06
3.77348e-06
3.62929e-06
3.46299e-06
3.27948e-06
3.08371e-06
2.88047e-06
2.67418e-06
2.46877e-06
2.26754e-06
2.07317e-06
1.88774e-06
1.7127e-06
1.54902e-06
1.3972e-06
1.25736e-06
1.12936e-06
1.0128e-06
9.07136e-07
8.1173e-07
7.25862e-07
6.48791e-07
5.79772e-07
5.77036e-07
6.4532e-07
7.21504e-07
8.06306e-07
9.0044e-07
1.00459e-06
1.11937e-06
1.24529e-06
1.38271e-06
1.53175e-06
1.69225e-06
1.8637e-06
2.04515e-06
2.23512e-06
2.4316e-06
2.63197e-06
2.83298e-06
3.03084e-06
3.22126e-06
3.39962e-06
3.56113e-06
3.70109e-06
3.81514e-06
3.89953e-06
3.95139e-06
3.96888e-06
3.95139e-06
3.89953e-06
3.81514e-06
3.70109e-06
3.56113e-06
3.39962e-06
3.22126e-06
3.03084e-06
2.83298e-06
2.63197e-06
2.4316e-06
2.23512e-06
2.04515e-06
1.8637e-06
1.69225e-06
1.53175e-06
1.38271e-06
1.24529e-06
1.11937e-06
1.00459e-06
9.0044e-07
8.06306e-07
7.21504e-07
6.4532e-07
5.77036e-07
5.73511e-07
6.40862e-07
7.15921e-07
7.99375e-07
8.91902e-07
9.94148e-07
1.10669e-06
1.23e-06
1.36438e-06
1.50993e-06
1.66647e-06
1.83346e-06
2.00994e-06
2.19447e-06
2.38506e-06
2.57917e-06
2.77367e-06
2.96489e-06
3.14873e-06
3.32075e-06
3.47637e-06
3.61113e-06
3.72088e-06
3.80204e-06
3.8519e-06
3.86871e-06
3.8519e-06
3.80204e-06
3.72088e-06
3.61113e-06
3.47637e-06
3.32075e-06
3.14873e-06
2.96489e-06
2.77367e-06
2.57917e-06
2.38506e-06
2.19447e-06
2.00994e-06
1.83346e-06
1.66647e-06
1.50993e-06
1.36438e-06
1.23e-06
1.10669e-06
9.94148e-07
8.91902e-07
7.99375e-07
7.15921e-07
6.40862e-07
5.73511e-07
5.69193e-07
6.35421e-07
7.0913e-07
7.9097e-07
8.81578e-07
9.81556e-07
1.09143e-06
1.21164e-06
1.34243e-06
1.48387e-06
1.63574e-06
1.79748e-06
1.96813e-06
2.14628e-06
2.33e-06
2.51682e-06
2.70374e-06
2.88725e-06
3.06344e-06
3.22812e-06
3.37694e-06
3.5057e-06
3.61047e-06
3.68791e-06
3.73546e-06
3.7515e-06
3.73546e-06
3.68791e-06
3.61047e-06
3.5057e-06
3.37694e-06
3.22812e-06
3.06344e-06
2.88725e-06
2.70374e-06
2.51682e-06
2.33e-06
2.14628e-06
1.96813e-06
1.79748e-06
1.63574e-06
1.48387e-06
1.34243e-06
1.21164e-06
1.09143e-06
9.81556e-07
8.81578e-07
7.9097e-07
7.0913e-07
6.35421e-07
5.69193e-07
5.64081e-07
6.29007e-07
7.01156e-07
7.81135e-07
8.69538e-07
9.66915e-07
1.07375e-06
1.19041e-06
1.31712e-06
1.45389e-06
1.60047e-06
1.75629e-06
1.92039e-06
2.09138e-06
2.26739e-06
2.44606e-06
2.62453e-06
2.79946e-06
2.96717e-06
3.12369e-06
3.26499e-06
3.3871e-06
3.48638e-06
3.55972e-06
3.60473e-06
3.61991e-06
3.60473e-06
3.55972e-06
3.48638e-06
3.3871e-06
3.26499e-06
3.12369e-06
2.96717e-06
2.79946e-06
2.62453e-06
2.44606e-06
2.26739e-06
2.09138e-06
1.92039e-06
1.75629e-06
1.60047e-06
1.45389e-06
1.31712e-06
1.19041e-06
1.07375e-06
9.66915e-07
8.69538e-07
7.81135e-07
7.01156e-07
6.29007e-07
5.64081e-07
5.58178e-07
6.21637e-07
6.92031e-07
7.69926e-07
8.55863e-07
9.50344e-07
1.0538e-06
1.16654e-06
1.28874e-06
1.42038e-06
1.56115e-06
1.71049e-06
1.86744e-06
2.03064e-06
2.19829e-06
2.36815e-06
2.53748e-06
2.70317e-06
2.86176e-06
3.00955e-06
3.14279e-06
3.2578e-06
3.35122e-06
3.42018e-06
3.46248e-06
3.47674e-06
3.46248e-06
3.42018e-06
3.35122e-06
3.2578e-06
3.14279e-06
3.00955e-06
2.86176e-06
2.70317e-06
2.53748e-06
2.36815e-06
2.19829e-06
2.03064e-06
1.86744e-06
1.71049e-06
1.56115e-06
1.42038e-06
1.28874e-06
1.16654e-06
1.0538e-06
9.50344e-07
8.55863e-07
7.69926e-07
6.92031e-07
6.21637e-07
5.58178e-07
5.51494e-07
6.13332e-07
6.81798e-07
7.57406e-07
8.40651e-07
9.31978e-07
1.03176e-06
1.14027e-06
1.25761e-06
1.38372e-06
1.51829e-06
1.66071e-06
1.81004e-06
1.96498e-06
2.1238e-06
2.28435e-06
2.44409e-06
2.60009e-06
2.74913e-06
2.8878e-06
3.01263e-06
3.12025e-06
3.20759e-06
3.272e-06
3.31149e-06
3.3248e-06
3.31149e-06
3.272e-06
3.20759e-06
3.12025e-06
3.01263e-06
2.8878e-06
2.74913e-06
2.60009e-06
2.44409e-06
2.28435e-06
2.1238e-06
1.96498e-06
1.81004e-06
1.66071e-06
1.51829e-06
1.38372e-06
1.25761e-06
1.14027e-06
1.03176e-06
9.31978e-07
8.40651e-07
7.57406e-07
6.81798e-07
6.13332e-07
5.51494e-07
5.44043e-07
6.04124e-07
6.70505e-07
7.43654e-07
8.2401e-07
9.11968e-07
1.00785e-06
1.11185e-06
1.22406e-06
1.34436e-06
1.47241e-06
1.60759e-06
1.749e-06
1.89535e-06
2.04501e-06
2.19597e-06
2.34583e-06
2.49188e-06
2.63115e-06
2.76051e-06
2.87677e-06
2.97687e-06
3.05802e-06
3.11782e-06
3.15446e-06
3.1668e-06
3.15446e-06
3.11782e-06
3.05802e-06
2.97687e-06
2.87677e-06
2.76051e-06
2.63115e-06
2.49188e-06
2.34583e-06
2.19597e-06
2.04501e-06
1.89535e-06
1.749e-06
1.60759e-06
1.47241e-06
1.34436e-06
1.22406e-06
1.11185e-06
1.00785e-06
9.11968e-07
8.2401e-07
7.43654e-07
6.70505e-07
6.04124e-07
5.44043e-07
5.35846e-07
5.94051e-07
6.58214e-07
7.28755e-07
8.06063e-07
8.90478e-07
9.82263e-07
1.08158e-06
1.18845e-06
1.30273e-06
1.42405e-06
1.5518e-06
1.68508e-06
1.82267e-06
1.96302e-06
2.10425e-06
2.24413e-06
2.38015e-06
2.50961e-06
2.62962e-06
2.73732e-06
2.82992e-06
2.90489e-06
2.9601e-06
2.9939e-06
3.00529e-06
2.9939e-06
2.9601e-06
2.90489e-06
2.82992e-06
2.73732e-06
2.62962e-06
2.50961e-06
2.38015e-06
2.24413e-06
2.10425e-06
1.96302e-06
1.82267e-06
1.68508e-06
1.5518e-06
1.42405e-06
1.30273e-06
1.18845e-06
1.08158e-06
9.82263e-07
8.90478e-07
8.06063e-07
7.28755e-07
6.58214e-07
5.94051e-07
5.35846e-07
5.26933e-07
5.83159e-07
6.44993e-07
7.12807e-07
7.8694e-07
8.67679e-07
9.55237e-07
1.04973e-06
1.15113e-06
1.25926e-06
1.37374e-06
1.49396e-06
1.61904e-06
1.74783e-06
1.87886e-06
2.01038e-06
2.14033e-06
2.26642e-06
2.38616e-06
2.49696e-06
2.59622e-06
2.68145e-06
2.75037e-06
2.80108e-06
2.83211e-06
2.84256e-06
2.83211e-06
2.80108e-06
2.75037e-06
2.68145e-06
2.59622e-06
2.49696e-06
2.38616e-06
2.26642e-06
2.14033e-06
2.01038e-06
1.87886e-06
1.74783e-06
1.61904e-06
1.49396e-06
1.37374e-06
1.25926e-06
1.15113e-06
1.04973e-06
9.55237e-07
8.67679e-07
7.8694e-07
7.12807e-07
6.44993e-07
5.83159e-07
5.26933e-07
5.17342e-07
5.71504e-07
6.30921e-07
6.95916e-07
7.66781e-07
8.43753e-07
9.26998e-07
1.01658e-06
1.11245e-06
1.21439e-06
1.32201e-06
1.4347e-06
1.55162e-06
1.67168e-06
1.7935e-06
1.91545e-06
2.03566e-06
2.15202e-06
2.2623e-06
2.36414e-06
2.45522e-06
2.5333e-06
2.59637e-06
2.64273e-06
2.67108e-06
2.68063e-06
2.67108e-06
2.64273e-06
2.59637e-06
2.5333e-06
2.45522e-06
2.36414e-06
2.2623e-06
2.15202e-06
2.03566e-06
1.91545e-06
1.7935e-06
1.67168e-06
1.55162e-06
1.4347e-06
1.32201e-06
1.21439e-06
1.11245e-06
1.01658e-06
9.26998e-07
8.43753e-07
7.66781e-07
6.95916e-07
6.30921e-07
5.71504e-07
5.17342e-07
5.07116e-07
5.59149e-07
6.16081e-07
6.78194e-07
7.45731e-07
8.18885e-07
8.97775e-07
9.8243e-07
1.07276e-06
1.16853e-06
1.26934e-06
1.37459e-06
1.48349e-06
1.59498e-06
1.70781e-06
1.82046e-06
1.93122e-06
2.03819e-06
2.13934e-06
2.23257e-06
2.3158e-06
2.38705e-06
2.44453e-06
2.48674e-06
2.51254e-06
2.52122e-06
2.51254e-06
2.48674e-06
2.44453e-06
2.38705e-06
2.3158e-06
2.23257e-06
2.13934e-06
2.03819e-06
1.93122e-06
1.82046e-06
1.70781e-06
1.59498e-06
1.48349e-06
1.37459e-06
1.26934e-06
1.16853e-06
1.07276e-06
9.8243e-07
8.97775e-07
8.18885e-07
7.45731e-07
6.78194e-07
6.16081e-07
5.59149e-07
5.07116e-07
4.96305e-07
5.46161e-07
6.00566e-07
6.59758e-07
7.23939e-07
7.93258e-07
8.67796e-07
9.47545e-07
1.03239e-06
1.12207e-06
1.21619e-06
1.31417e-06
1.41525e-06
1.51844e-06
1.62258e-06
1.72627e-06
1.82797e-06
1.92595e-06
2.0184e-06
2.10344e-06
2.17923e-06
2.24401e-06
2.29621e-06
2.33451e-06
2.3579e-06
2.36577e-06
2.3579e-06
2.33451e-06
2.29621e-06
2.24401e-06
2.17923e-06
2.10344e-06
2.0184e-06
1.92595e-06
1.82797e-06
1.72627e-06
1.62258e-06
1.51844e-06
1.41525e-06
1.31417e-06
1.21619e-06
1.12207e-06
1.03239e-06
9.47545e-07
8.67796e-07
7.93258e-07
7.23939e-07
6.59758e-07
6.00566e-07
5.46161e-07
4.96305e-07
4.84967e-07
5.32616e-07
5.8447e-07
6.40728e-07
7.01553e-07
7.67056e-07
8.37282e-07
9.12193e-07
9.91646e-07
1.07538e-06
1.16299e-06
1.25393e-06
1.34745e-06
1.44267e-06
1.53848e-06
1.63363e-06
1.72671e-06
1.81618e-06
1.90041e-06
1.97774e-06
2.04654e-06
2.10525e-06
2.15251e-06
2.18714e-06
2.20829e-06
2.2154e-06
2.20829e-06
2.18714e-06
2.15251e-06
2.10525e-06
2.04654e-06
1.97774e-06
1.90041e-06
1.81618e-06
1.72671e-06
1.63363e-06
1.53848e-06
1.44267e-06
1.34745e-06
1.25393e-06
1.16299e-06
1.07538e-06
9.91646e-07
9.12193e-07
8.37282e-07
7.67056e-07
7.01553e-07
6.40728e-07
5.8447e-07
5.32616e-07
4.84967e-07
4.73163e-07
5.18592e-07
5.67892e-07
6.21226e-07
6.78722e-07
7.40457e-07
8.06445e-07
8.76621e-07
9.50826e-07
1.02879e-06
1.11012e-06
1.19428e-06
1.28058e-06
1.36818e-06
1.45609e-06
1.54317e-06
1.62813e-06
1.7096e-06
1.78613e-06
1.85625e-06
1.91853e-06
1.9716e-06
2.01426e-06
2.0455e-06
2.06456e-06
2.07096e-06
2.06456e-06
2.0455e-06
2.01426e-06
1.9716e-06
1.91853e-06
1.85625e-06
1.78613e-06
1.7096e-06
1.62813e-06
1.54317e-06
1.45609e-06
1.36818e-06
1.28058e-06
1.19428e-06
1.11012e-06
1.02879e-06
9.50826e-07
8.76621e-07
8.06445e-07
7.40457e-07
6.78722e-07
6.21226e-07
5.67892e-07
5.18592e-07
4.73163e-07
4.60957e-07
5.04168e-07
5.50929e-07
6.01371e-07
6.55589e-07
7.1363e-07
7.75482e-07
8.41059e-07
9.10189e-07
9.826e-07
1.05791e-06
1.1356e-06
1.21503e-06
1.29544e-06
1.3759e-06
1.45538e-06
1.53274e-06
1.60674e-06
1.67611e-06
1.73955e-06
1.79579e-06
1.84365e-06
1.88208e-06
1.91019e-06
1.92733e-06
1.93309e-06
1.92733e-06
1.91019e-06
1.88208e-06
1.84365e-06
1.79579e-06
1.73955e-06
1.67611e-06
1.60674e-06
1.53274e-06
1.45538e-06
1.3759e-06
1.29544e-06
1.21503e-06
1.1356e-06
1.05791e-06
9.826e-07
9.10189e-07
8.41059e-07
7.75482e-07
7.1363e-07
6.55589e-07
6.01371e-07
5.50929e-07
5.04168e-07
4.60957e-07
4.48415e-07
4.89427e-07
5.33681e-07
5.8128e-07
6.3229e-07
6.86734e-07
7.44577e-07
8.05716e-07
8.69972e-07
9.37072e-07
1.00664e-06
1.0782e-06
1.15116e-06
1.22479e-06
1.29827e-06
1.37067e-06
1.44096e-06
1.50805e-06
1.5708e-06
1.62807e-06
1.67876e-06
1.72184e-06
1.75638e-06
1.78163e-06
1.79702e-06
1.80219e-06
1.79702e-06
1.78163e-06
1.75638e-06
1.72184e-06
1.67876e-06
1.62807e-06
1.5708e-06
1.50805e-06
1.44096e-06
1.37067e-06
1.29827e-06
1.22479e-06
1.15116e-06
1.0782e-06
1.00664e-06
9.37072e-07
8.69972e-07
8.05716e-07
7.44577e-07
6.86734e-07
6.3229e-07
5.8128e-07
5.33681e-07
4.89427e-07
4.48415e-07
4.35605e-07
4.74448e-07
5.16242e-07
5.61063e-07
6.08955e-07
6.59917e-07
7.13897e-07
7.7078e-07
8.30381e-07
8.92432e-07
9.56576e-07
1.02236e-06
1.08923e-06
1.15653e-06
1.22351e-06
1.28933e-06
1.35308e-06
1.41379e-06
1.47046e-06
1.52208e-06
1.56769e-06
1.6064e-06
1.63741e-06
1.66005e-06
1.67384e-06
1.67847e-06
1.67384e-06
1.66005e-06
1.63741e-06
1.6064e-06
1.56769e-06
1.52208e-06
1.47046e-06
1.41379e-06
1.35308e-06
1.28933e-06
1.22351e-06
1.15653e-06
1.08923e-06
1.02236e-06
9.56576e-07
8.92432e-07
8.30381e-07
7.7078e-07
7.13897e-07
6.59917e-07
6.08955e-07
5.61063e-07
5.16242e-07
4.74448e-07
4.35605e-07
4.22595e-07
4.59311e-07
4.98704e-07
5.40827e-07
5.85702e-07
6.33313e-07
6.83591e-07
7.36415e-07
7.91595e-07
8.48872e-07
9.07904e-07
9.6827e-07
1.02946e-06
1.09087e-06
1.15183e-06
1.21158e-06
1.26931e-06
1.32417e-06
1.37526e-06
1.42173e-06
1.46272e-06
1.49746e-06
1.52525e-06
1.54553e-06
1.55787e-06
1.56202e-06
1.55787e-06
1.54553e-06
1.52525e-06
1.49746e-06
1.46272e-06
1.42173e-06
1.37526e-06
1.32417e-06
1.26931e-06
1.21158e-06
1.15183e-06
1.09087e-06
1.02946e-06
9.6827e-07
9.07904e-07
8.48872e-07
7.91595e-07
7.36415e-07
6.83591e-07
6.33313e-07
5.85702e-07
5.40827e-07