# vtk DataFile Version 2.0
Func
ASCII
DATASET RECTILINEAR_GRID
DIMENSIONS 31 31 31
X_COORDINATES 31 double
-9.67742
-9.03226
-8.3871
-7.74194
-7.09677
-6.45161
-5.80645
-5.16129
-4.51613
-3.87097
-3.22581
-2.58065
-1.93548
-1.29032
-0.645161
0
0.645161
1.29032
1.93548
2.58065
3.22581
3.87097
4.51613
5.16129
5.80645
6.45161
7.09677
7.74194
8.3871
9.03226
9.67742
Y_COORDINATES 31 double
-9.67742
-9.03226
-8.3871
-7.74194
-7.09677
-6.45161
-5.80645
-5.16129
-4.51613
-3.87097
-3.22581
-2.58065
-1.93548
-1.29032
-0.645161
0
0.645161
1.29032
1.93548
2.58065
3.22581
3.87097
4.51613
5.16129
5.80645
6.45161
7.09677
7.74194
8.3871
9.03226
9.67742
Z_COORDINATES 31 double
-9.67742
-9.03226
-8.3871
-7.74194
-7.09677
-6.45161
-5.80645
-5.16129
-4.51613
-3.87097
-3.22581
-2.58065
-1.93548
-1.29032
-0.645161
0
0.645161
1.29032
1.93548
2.58065
3.22581
3.87097
4.51613
5.16129
5.80645
6.45161
7.09677
7.74194
8.3871
9.03226
9.67742
POINT_DATA 29791
SCALARS data double 1
LOOKUP_TABLE default
-0.047503
-0.062073
-0.0764324
-0.0887788
-0.0985202
-0.104648
-0.106978
-0.105544
-0.100959
-0.0935561
-0.0838027
-0.0722281
-0.0593876
-0.0458169
-0.0320094
-0.0184028
-0.00537535
0.00675528
0.0177287
0.0273325
0.0353944
0.0417776
0.0463833
0.0491522
0.0500776
0.0490013
0.0460449
0.041403
0.0355499
0.0288256
0.0218732
-0.0669028
-0.0872763
-0.106827
-0.12336
-0.135916
-0.143167
-0.144912
-0.141191
-0.133013
-0.120959
-0.105786
-0.0883297
-0.0694437
-0.0499279
-0.0304948
-0.0117481
0.00581819
0.0218172
0.0359578
0.0480241
0.0578583
0.065347
0.0704192
0.0730455
0.0732519
0.0708129
0.0659477
0.058937
0.0503704
0.0407367
0.030803
-0.0745386
-0.0967241
-0.117491
-0.134421
-0.146426
-0.152148
-0.151307
-0.14415
-0.131977
-0.115617
-0.0960897
-0.0744884
-0.0518902
-0.0292715
-0.00746164
0.0128806
0.0312639
0.0473538
0.06095
0.0719505
0.080321
0.0860694
0.0892336
0.0898748
0.0880871
0.0836518
0.0768101
0.067938
0.0576038
0.0463286
0.0348601
-0.0655731
-0.0842506
-0.101017
-0.11358
-0.121004
-0.122063
-0.116727
-0.105459
-0.0896879
-0.070443
-0.048924
-0.0263611
-0.00391577
0.0174125
0.0368354
0.0537976
0.0679664
0.0792107
0.087562
0.093164
0.0962241
0.0969738
0.0956415
0.0924363
0.0875487
0.0808486
0.0725816
0.0630436
0.0526836
0.0418971
0.031202
-0.0416406
-0.0519063
-0.0600222
-0.0641621
-0.0637546
-0.058033
-0.0472613
-0.0321581
-0.0141027
0.00576106
0.0261842
0.0459534
0.0639904
0.0794429
0.0917283
0.100548
0.105871
0.107893
0.106992
0.10365
0.0984016
0.0917668
0.0842155
0.0761357
0.0678225
0.0592973
0.0507519
0.042343
0.0342098
0.0264906
0.0192336
-0.00881117
-0.00798077
-0.00507019
0.00106235
0.0104793
0.0233237
0.0389961
0.056551
0.074822
0.0926629
0.108913
0.122526
0.132659
0.138748
0.140542
0.138104
0.131785
0.122176
0.110038
0.0962236
0.0816037
0.066995
0.0531027
0.0404818
0.0295094
0.020391
0.013213
0.00792091
0.00422596
0.00191127
0.000425737
0.0261274
0.0382757
0.0522027
0.0681708
0.085698
0.104256
0.122948
0.140683
0.156638
0.169787
0.179192
0.184105
0.184036
0.178808
0.168571
0.153793
0.135221
0.113825
0.0907193
0.0670782
0.0440538
0.0226982
0.00389486
-0.011689
-0.0236419
-0.0315793
-0.0355615
-0.0358908
-0.033343
-0.0285267
-0.0226527
0.0564255
0.077931
0.100668
0.124023
0.147035
0.168584
0.187575
0.202895
0.214139
0.220515
0.221414
0.21647
0.205614
0.189085
0.167437
0.141507
0.112379
0.0813157
0.0496778
0.0188464
-0.00986199
-0.0352708
-0.0564176
-0.0726038
-0.0834436
-0.0884145
-0.0877391
-0.0819588
-0.0723142
-0.0597707
-0.0461451
0.0779423
0.105551
0.133679
0.160954
0.18607
0.207483
0.22403
0.234707
0.239553
0.238094
0.23011
0.215658
0.195084
0.16902
0.138355
0.104205
0.0678704
0.0307674
-0.00564375
-0.0399286
-0.0707518
-0.0969443
-0.117575
-0.131996
-0.139901
-0.140687
-0.134722
-0.122732
-0.106331
-0.0867424
-0.0662563
0.0890826
0.119183
0.149036
0.176712
0.200729
0.219322
0.2314
0.236174
0.234097
0.225057
0.209229
0.187064
0.159271
0.126779
0.0907046
0.0523057
0.0129462
-0.0259622
-0.0630207
-0.0968944
-0.126368
-0.150399
-0.168176
-0.179164
-0.183158
-0.179534
-0.168751
-0.151633
-0.130016
-0.105248
-0.0799147
0.0906957
0.120161
0.148672
0.173988
0.194612
0.208759
0.215513
0.214366
0.206122
0.191012
0.16956
0.142532
0.11089
0.0757368
0.0382695
-0.000260769
-0.0385786
-0.0754256
-0.109601
-0.139989
-0.165595
-0.185575
-0.199285
-0.206316
-0.206553
-0.199385
-0.18528
-0.165053
-0.1406
-0.113251
-0.0857029
0.0851178
0.111775
0.136925
0.158262
0.174399
0.183689
0.185458
0.179492
0.166848
0.148042
0.123855
0.0952479
0.0633013
0.0291465
-0.00608208
-0.0412799
-0.0753869
-0.107408
-0.136428
-0.161616
-0.182234
-0.197651
-0.207382
-0.211112
-0.208761
-0.199727
-0.184397
-0.163476
-0.13877
-0.111478
-0.0842726
0.0750467
0.0977187
0.118543
0.135342
0.146927
0.151898
0.149838
0.140798
0.125981
0.106097
0.0820643
0.054908
0.0256893
-0.00456757
-0.0349148
-0.0645004
-0.0925636
-0.118429
-0.141498
-0.161224
-0.177106
-0.188684
-0.195567
-0.197463
-0.194248
-0.185287
-0.170801
-0.151309
-0.128435
-0.103183
-0.0781266
0.0627231
0.080979
0.0972556
0.109641
0.117188
0.118794
0.114288
0.10393
0.088965
0.0701989
0.0485723
0.0250544
0.00056942
-0.0240693
-0.0481859
-0.071242
-0.0928087
-0.112537
-0.130118
-0.145248
-0.157591
-0.166776
-0.172419
-0.174159
-0.171744
-0.164434
-0.152228
-0.135422
-0.115431
-0.0930656
-0.0707913
0.0496297
0.0634448
0.075308
0.0836365
0.0877369
0.0868178
0.0809185
0.0704519
0.0566246
0.0402533
0.0222144
0.00333638
-0.0156682
-0.0342554
-0.0520585
-0.0688656
-0.0845693
-0.0991097
-0.112416
-0.124348
-0.134655
-0.142962
-0.148804
-0.151672
-0.151117
-0.146216
-0.136734
-0.122749
-0.105495
-0.085646
-0.0655966
0.0367188
0.0462478
0.0539288
0.0585022
0.0595201
0.0564787
0.0495966
0.0393983
0.0270028
0.013192
-0.00126451
-0.0157126
-0.0296727
-0.0428759
-0.0552535
-0.0668927
-0.0779634
-0.0886403
-0.0990236
-0.109067
-0.118533
-0.126977
-0.133795
-0.138284
-0.139772
-0.137094
-0.129804
-0.117805
-0.102216
-0.0836517
-0.0644912
0.0248981
0.030459
0.034264
0.0353101
0.033367
0.0281734
0.0201001
0.00976833
-0.00179505
-0.0138448
-0.0257083
-0.0368836
-0.0470904
-0.0562912
-0.0646632
-0.0725351
-0.0802953
-0.0882945
-0.0967525
-0.105674
-0.114799
-0.123594
-0.131309
-0.137054
-0.139951
-0.138588
-0.132357
-0.121047
-0.105726
-0.0870212
-0.0673284
0.0154257
0.0176593
0.018146
0.0160261
0.0112396
0.00370109
-0.00608599
-0.0173967
-0.0292537
-0.0409089
-0.0517291
-0.0612941
-0.0694431
-0.076287
-0.0821683
-0.0875831
-0.0930768
-0.0991316
-0.10606
-0.113914
-0.122426
-0.131009
-0.138815
-0.14483
-0.148034
-0.146816
-0.140478
-0.128746
-0.112673
-0.0929311
-0.0719173
0.0099394
0.00999996
0.008202
0.00368506
-0.00350898
-0.0133769
-0.0253003
-0.0384316
-0.0517612
-0.0644698
-0.0758738
-0.0855318
-0.0932935
-0.0993117
-0.103998
-0.107939
-0.111782
-0.116112
-0.12134
-0.127592
-0.134657
-0.141975
-0.148697
-0.153785
-0.156177
-0.15417
-0.147039
-0.134489
-0.11754
-0.0968879
-0.0748592
0.0100487
0.00965661
0.00717346
0.00158243
-0.00705975
-0.0187654
-0.0328234
-0.0482469
-0.063889
-0.0787811
-0.0920886
-0.103235
-0.111962
-0.118354
-0.122794
-0.125884
-0.128328
-0.130802
-0.133834
-0.137684
-0.142281
-0.147196
-0.151703
-0.154862
-0.155679
-0.152502
-0.144636
-0.131776
-0.114849
-0.0945022
-0.0728775
0.0166647
0.0179127
0.0167467
0.0118479
0.00319127
-0.00936056
-0.0250351
-0.0427031
-0.0609752
-0.0786653
-0.0946991
-0.108263
-0.118884
-0.126477
-0.13131
-0.133935
-0.135075
-0.13549
-0.135849
-0.136603
-0.137903
-0.139561
-0.141086
-0.141753
-0.14074
-0.136599
-0.128697
-0.116721
-0.101412
-0.0832772
-0.0641438
0.0293813
0.0343061
0.0364522
0.0340857
0.0270105
0.014867
-0.00155081
-0.0209865
-0.0417288
-0.0623331
-0.0814262
-0.097886
-0.110949
-0.120283
-0.125973
-0.128471
-0.128479
-0.12683
-0.124346
-0.121705
-0.11934
-0.11738
-0.115655
-0.113738
-0.11106
-0.106501
-0.0995139
-0.0897657
-0.0777359
-0.0637067
-0.0490801
0.0462466
0.0563002
0.0632231
0.0648056
0.0606174
0.0500121
0.0337625
0.0132196
-0.00955114
-0.0328425
-0.0549661
-0.0744639
-0.0902455
-0.101689
-0.108656
-0.111453
-0.110732
-0.10737
-0.10233
-0.0965189
-0.0906665
-0.0852464
-0.0804473
-0.0761855
-0.0721802
-0.0677184
-0.0623482
-0.0557172
-0.0480062
-0.0392312
-0.0303083
0.0640592
0.0796728
0.0918666
0.0979638
0.0972782
0.0888625
0.0734286
0.0523777
0.0281015
0.00253322
-0.0223541
-0.0447888
-0.0633635
-0.0771653
-0.0858169
-0.0894537
-0.0886424
-0.0842671
-0.0773904
-0.0691074
-0.0604135
-0.0521004
-0.0446986
-0.0384591
-0.0333922
-0.0291979
-0.025533
-0.0220394
-0.0186219
-0.0150473
-0.0117532
0.0791387
0.0995523
0.116365
0.126515
0.129088
0.122876
0.108504
0.087371
0.0621052
0.0347927
0.00761473
-0.017413
-0.0386229
-0.0548492
-0.0654899
-0.0705032
-0.0703403
-0.0658432
-0.0581112
-0.0483561
-0.0377614
-0.0273635
-0.0179696
-0.0101135
-0.00406196
0.000126627
0.00267452
0.00391564
0.0041439
0.00376883
0.00276068
0.0883955
0.111846
0.131659
0.144529
0.14939
0.144859
0.13146
0.110539
0.0848227
0.0564501
0.0277002
0.000725037
-0.0226425
-0.041056
-0.0537324
-0.0604648
-0.0615697
-0.0577989
-0.0502159
-0.0400581
-0.028595
-0.0170029
-0.00626819
0.00287554
0.00996618
0.0146848
0.0171244
0.0175586
0.0163702
0.0140415
0.0108322
0.0897195
0.113823
0.134416
0.148178
0.153988
0.150413
0.137872
0.117609
0.0922731
0.0639324
0.0348245
0.00709646
-0.0173826
-0.0371903
-0.051435
-0.05978
-0.0624049
-0.0599324
-0.0533204
-0.0437357
-0.0324216
-0.0205748
-0.00924499
0.000736089
0.00879035
0.0144551
0.0176999
0.0187087
0.017846
0.0155625
0.0122823
0.0829758
0.105294
0.124455
0.137325
0.142841
0.139644
0.128061
0.109177
0.0853907
0.0585711
0.0307676
0.0039719
-0.0200529
-0.0399287
-0.0547447
-0.0640881
-0.0680172
-0.0670054
-0.0618509
-0.0535689
-0.0432756
-0.032077
-0.0209749
-0.0107976
-0.00215644
0.00445087
0.00889248
0.0112541
0.0118063
0.0108966
0.00898286
0.0690871
0.0875347
0.103398
0.113972
0.118348
0.115388
0.105301
0.0889721
0.0683797
0.0450708
0.0207576
-0.00287792
-0.0243266
-0.0423837
-0.0562218
-0.0654206
-0.0699513
-0.0701363
-0.0665807
-0.060087
-0.051562
-0.0419267
-0.0320361
-0.0226206
-0.0142429
-0.00734998
-0.00213056
0.00141532
0.00344085
0.00416278
0.00396356
0.0505471
0.063924
0.0754686
0.0830597
0.0860338
0.0834777
0.0756067
0.063037
0.0472107
0.0292631
0.0104644
-0.0079284
-0.0247743
-0.0391478
-0.0503935
-0.0581515
-0.0623501
-0.0631799
-0.0610476
-0.0565159
-0.0502373
-0.0428883
-0.0351112
-0.0274688
-0.0204098
-0.0142785
-0.00927071
-0.00542759
-0.00269906
-0.000979104
-1.52036e-06
0.031186
0.039302
0.0464127
0.0510074
0.0527152
0.0509076
0.0457258
0.0375839
0.0273478
0.0157203
0.00349691
-0.00852962
-0.0196318
-0.0292107
-0.036831
-0.0422382
-0.0453568
-0.046277
-0.0452281
-0.0425432
-0.0386194
-0.0338772
-0.0287249
-0.0235283
-0.0185887
-0.0141325
-0.0103097
-0.00718231
-0.00475062
-0.00296625
-0.00169816
-0.074949
-0.0980294
-0.12052
-0.139874
-0.155089
-0.164712
-0.168442
-0.166288
-0.159297
-0.148028
-0.133239
-0.115774
-0.0965018
-0.0762489
-0.0557588
-0.0356723
-0.0165267
0.00124335
0.0172952
0.0313591
0.0432231
0.0527208
0.0597316
0.0641823
0.0660624
0.0651241
0.0615678
0.0556649
0.0480096
0.0391041
0.0297413
-0.105064
-0.137124
-0.167672
-0.193469
-0.213001
-0.224435
-0.227403
-0.221858
-0.20952
-0.191333
-0.168506
-0.142359
-0.114215
-0.0852975
-0.0566752
-0.0292255
-0.0036412
0.019561
0.0400169
0.0574761
0.071771
0.082791
0.0904727
0.0947961
0.0958022
0.0931339
0.0871607
0.0782829
0.0671871
0.0545442
0.0413438
-0.118112
-0.153318
-0.186135
-0.212899
-0.23189
-0.241251
-0.24046
-0.229781
-0.211413
-0.186689
-0.157236
-0.124777
-0.0909868
-0.0573666
-0.0251649
0.00465813
0.0314194
0.0546909
0.0742576
0.0900546
0.102114
0.110521
0.115387
0.116834
0.115008
0.109566
0.100914
0.0895903
0.0762163
0.0614874
0.0463809
-0.10705
-0.137676
-0.165214
-0.186067
-0.198711
-0.201402
-0.194005
-0.177131
-0.153193
-0.12385
-0.0910198
-0.0566593
-0.0225997
0.0095984
0.038726
0.0639602
0.084843
0.101243
0.113288
0.121281
0.125618
0.126723
0.124996
0.120786
0.11439
0.105603
0.0948311
0.0824944
0.0690537
0.0550178
0.0410676
-0.0739178
-0.0928308
-0.108287
-0.117291
-0.118832
-0.111735
-0.0963072
-0.073594
-0.045939
-0.01519
0.0166319
0.0475624
0.0758577
0.10014
0.119475
0.13339
0.14185
0.14519
0.144034
0.139183
0.131508
0.121864
0.111011
0.0995688
0.0879983
0.0763389
0.0648996
0.0539008
0.0433993
0.0335265
0.0243331
-0.0277357
-0.0310428
-0.0309671
-0.0254479
-0.0142
0.00317633
0.0258648
0.0524117
0.0808021
0.109166
0.135585
0.158306
0.175892
0.187351
0.192196
0.190453
0.182616
0.16957
0.152486
0.13269
0.111546
0.0903385
0.0701778
0.0519387
0.0362166
0.0233514
0.0134727
0.00649713
0.00193905
-0.000583148
-0.00183768
0.0218528
0.0346005
0.0502753
0.0697504
0.0925219
0.118147
0.145357
0.172412
0.197827
0.219898
0.23701
0.247815
0.25136
0.247182
0.235342
0.216417
0.191446
0.161839
0.129257
0.0954802
0.0622748
0.0312679
0.00383725
-0.0189651
-0.0364748
-0.04805
-0.0538029
-0.0541724
-0.0502563
-0.0430011
-0.0340673
0.0650603
0.0911337
0.1193
0.149258
0.179799
0.209735
0.237499
0.261256
0.280166
0.292861
0.298188
0.29534
0.283942
0.264107
0.236445
0.202035
0.162369
0.11925
0.0746756
0.0307091
-0.0106519
-0.047598
-0.0786259
-0.10262
-0.11893
-0.126665
-0.126199
-0.118308
-0.104674
-0.0867565
-0.0670346
0.0959447
0.130771
0.166602
0.202131
0.235636
0.265388
0.289726
0.306933
0.316845
0.318558
0.311478
0.295395
0.270518
0.237493
0.197391
0.151658
0.102062
0.0506015
-0.000609141
-0.0494429
-0.0938798
-0.132117
-0.16268
-0.184506
-0.197028
-0.199192
-0.191592
-0.175264
-0.152347
-0.124684
-0.0953789
0.112281
0.150805
0.189159
0.225317
0.257285
0.283049
0.30106
0.309898
0.310033
0.301084
0.283033
0.256228
0.221386
0.179563
0.132122
0.0806839
0.027077
-0.0267376
-0.0787553
-0.127006
-0.169643
-0.205037
-0.231868
-0.249205
-0.256596
-0.252909
-0.238862
-0.215611
-0.185572
-0.150775
-0.114698
0.115364
0.153249
0.189887
0.222864
0.250144
0.269683
0.280205
0.280698
0.272161
0.254722
0.228866
0.195392
0.155369
0.11008
0.0609801
0.00964784
-0.0422456
-0.0929867
-0.140875
-0.184266
-0.221627
-0.251598
-0.273078
-0.285284
-0.287854
-0.27963
-0.261321
-0.234037
-0.200264
-0.162015
-0.12289
0.108599
0.142889
0.175103
0.20275
0.223937
0.236797
0.240415
0.234224
0.219607
0.197113
0.1676
0.132146
0.0919791
0.0484071
0.00276956
-0.0435946
-0.0893512
-0.133188
-0.173832
-0.21005
-0.240676
-0.264637
-0.281025
-0.289158
-0.288683
-0.278417
-0.258908
-0.231068
-0.197266
-0.159337
-0.120808
0.0958423
0.125001
0.15158
0.173259
0.188417
0.195497
0.193967
0.18367
0.166216
0.142442
0.113411
0.0802914
0.0442765
0.00650406
-0.0319758
-0.0702113
-0.107321
-0.142474
-0.174859
-0.203659
-0.228033
-0.247131
-0.260152
-0.266404
-0.265429
-0.255962
-0.238262
-0.212929
-0.182095
-0.147329
-0.111986
0.0802222
0.103744
0.124505
0.140511
0.150479
0.153229
0.148586
0.136727
0.11934
0.0974094
0.0720394
0.0443215
0.0152479
-0.0143571
-0.0438501
-0.0727485
-0.100668
-0.127257
-0.152136
-0.174828
-0.194723
-0.211076
-0.223061
-0.229853
-0.23077
-0.22436
-0.21052
-0.18949
-0.163122
-0.132722
-0.101472
0.0637298
0.0816423
0.0968431
0.107734
0.11339
0.113015
0.106741
0.0950012
0.0794441
0.061087
0.0409538
0.0199436
-0.00125209
-0.0221987
-0.0427057
-0.062772
-0.0824869
-0.101928
-0.12106
-0.139643
-0.157179
-0.172899
-0.185837
-0.194923
-0.199161
-0.196808
-0.187382
-0.170788
-0.148633
-0.122028
-0.0940612
0.0475915
0.0601252
0.0700952
0.0762788
0.0780931
0.0750915
0.0676632
0.0564421
0.0429744
0.0282476
0.0131533
-0.0016412
-0.0157648
-0.0291711
-0.0420968
-0.0549742
-0.0682985
-0.0824909
-0.0977689
-0.11403
-0.130791
-0.147174
-0.161998
-0.173897
-0.18153
-0.182787
-0.176861
-0.163396
-0.143831
-0.119189
-0.0925636
0.0330081
0.040591
0.0457156
0.047441
0.0454793
0.0396663
0.0306126
0.0191331
0.00667224
-0.00580695
-0.0175203
-0.0279892
-0.0371024
-0.0451265
-0.05264
-0.0604171
-0.0692677
-0.0798717
-0.0926251
-0.107506
-0.124005
-0.14112
-0.157459
-0.171384
-0.181253
-0.184578
-0.18033
-0.167988
-0.1489
-0.1241
-0.0967451
0.0217399
0.0252475
0.0262504
0.023936
0.0182356
0.00917353
-0.00244424
-0.0156121
-0.0289172
-0.0413554
-0.0521566
-0.0609173
-0.0676594
-0.0728305
-0.077224
-0.0818415
-0.0877137
-0.0957126
-0.106378
-0.119768
-0.13538
-0.152151
-0.168563
-0.182811
-0.19306
-0.196532
-0.192081
-0.179119
-0.15894
-0.132631
-0.103393
0.0161312
0.0171768
0.0154668
0.010123
0.0011892
-0.0112392
-0.0261865
-0.0424345
-0.0584746
-0.0731551
-0.0855829
-0.0952711
-0.102207
-0.106856
-0.11008
-0.112987
-0.116746
-0.122381
-0.13058
-0.141533
-0.154842
-0.16951
-0.184049
-0.196646
-0.205428
-0.207497
-0.201694
-0.187419
-0.165895
-0.138221
-0.107541
0.0184812
0.0194927
0.0173025
0.010755
-0.000125088
-0.0153057
-0.0336772
-0.0537969
-0.0738994
-0.0925697
-0.108641
-0.121375
-0.130547
-0.136474
-0.139937
-0.142042
-0.144026
-0.147043
-0.151964
-0.159196
-0.16857
-0.179321
-0.190174
-0.199494
-0.205543
-0.205528
-0.198348
-0.183408
-0.161786
-0.134489
-0.104423
0.0300329
0.0339601
0.0341018
0.0288262
0.0179968
0.00144656
-0.0196337
-0.0435887
-0.0682386
-0.0918081
-0.11273
-0.129865
-0.142625
-0.151028
-0.155652
-0.157501
-0.157821
-0.157887
-0.158788
-0.161227
-0.165392
-0.170904
-0.176872
-0.182012
-0.184874
-0.183008
-0.175408
-0.161474
-0.142031
-0.117862
-0.0914297
0.0500599
0.0597352
0.064988
0.0635575
0.0550191
0.0388913
0.0163801
-0.0106869
-0.0396005
-0.068172
-0.0943549
-0.116513
-0.133587
-0.145192
-0.151603
-0.153648
-0.152531
-0.149626
-0.146252
-0.143461
-0.14188
-0.141624
-0.142307
-0.143122
-0.143018
-0.140082
-0.133417
-0.122396
-0.107506
-0.0891828
-0.0692782
0.0755575
0.0929175
0.105255
0.109604
0.105168
0.0910792
0.0684915
0.039342
0.00690837
-0.0262115
-0.0574792
-0.0847335
-0.1064
-0.121641
-0.130369
-0.13318
-0.131186
-0.125821
-0.118612
-0.110955
-0.103933
-0.0981886
-0.0938898
-0.0907602
-0.0882032
-0.0849518
-0.0802297
-0.0733729
-0.0644927
-0.0536262
-0.0419234
0.101726
0.127184
0.147138
0.157939
0.1584
0.147262
0.125567
0.0952883
0.0602168
0.0232945
-0.0125074
-0.0445478
-0.0707668
-0.0898772
-0.10142
-0.105722
-0.103757
-0.0969573
-0.0869941
-0.0755452
-0.0640903
-0.053754
-0.0452249
-0.0387389
-0.0341491
-0.0308383
-0.0281654
-0.0254553
-0.0224793
-0.0189044
-0.0152018
0.123169
0.155397
0.181823
0.198248
0.203151
0.194938
0.174508
0.143795
0.106951
0.0671433
0.027653
-0.00851521
-0.0389109
-0.0618637
-0.076571
-0.0830859
-0.0821985
-0.0752694
-0.0640159
-0.050284
-0.0358315
-0.0221482
-0.0103395
-0.00107059
0.00541215
0.00916922
0.0106805
0.0105809
0.00933454
0.00753533
0.00526781
0.135469
0.171712
0.202087
0.222071
0.229921
0.223832
0.204544
0.173889
0.136156
0.0945815
0.0525828
0.0133606
-0.0203924
-0.046737
-0.0645968
-0.0737715
-0.0748415
-0.0690222
-0.0579672
-0.043552
-0.0276563
-0.0119756
0.00211717
0.0136542
0.0220894
0.0270846
0.0289324
0.0281621
0.0253321
0.021143
0.0160436
0.135807
0.172464
0.203469
0.224286
0.23311
0.228083
0.209794
0.17991
0.142581
0.100926
0.0582887
0.0178514
-0.0176459
-0.0461527
-0.0664282
-0.0780718
-0.0814494
-0.0775731
-0.0679277
-0.0542742
-0.0384463
-0.0221667
-0.00690444
0.00622151
0.0164825
0.023323
0.0268405
0.0274062
0.0255359
0.0218844
0.0170711
0.124423
0.157987
0.186442
0.205538
0.213578
0.208804
0.191677
0.163643
0.128444
0.0888946
0.0480498
0.00885676
-0.0261041
-0.054845
-0.0760898
-0.0893139
-0.0946911
-0.0929986
-0.0854735
-0.0736436
-0.05915
-0.0435828
-0.0283463
-0.0145648
-0.003031
0.00564372
0.0113822
0.0143787
0.0150124
0.0137872
0.0113082
0.102891
0.130462
0.153777
0.169224
0.17536
0.170732
0.155626
0.13122
0.100598
0.0660905
0.0302486
-0.00443994
-0.0357665
-0.061992
-0.0819514
-0.0950942
-0.10145
-0.101558
-0.096358
-0.0870578
-0.0749884
-0.0614716
-0.0477073
-0.0346909
-0.0231631
-0.0136704
-0.00640435
-0.00133059
0.00177013
0.00320972
0.00345311
0.0752162
0.0952293
0.112122
0.123116
0.127144
0.123015
0.11105
0.0920659
0.0683195
0.0415318
0.0136045
-0.0135942
-0.0383863
-0.0594291
-0.0757929
-0.0869965
-0.0929872
-0.0940955
-0.090959
-0.084428
-0.0754636
-0.0650402
-0.0540621
-0.0433009
-0.0333548
-0.0246402
-0.0173937
-0.0116556
-0.00735479
-0.00433896
-0.00231768
0.0468421
0.0591505
0.0696
0.0762869
0.0785585
0.075551
0.067495
0.054973
0.039351
0.0217121
0.00326404
-0.0147974
-0.0313873
-0.0456253
-0.0568855
-0.0648203
-0.0693522
-0.0706488
-0.0690782
-0.0651517
-0.0594615
-0.0526208
-0.0452107
-0.0377391
-0.0306139
-0.0241111
-0.0184203
-0.0136244
-0.0097273
-0.0066589
-0.00430649
-0.100352
-0.131299
-0.161352
-0.187263
-0.207689
-0.220823
-0.226157
-0.223796
-0.215179
-0.201089
-0.182551
-0.160694
-0.136662
-0.11152
-0.0862026
-0.0614908
-0.0380146
-0.0162597
0.0034119
0.0207314
0.0354959
0.0475495
0.0567767
0.0631025
0.0665089
0.0667062
0.0638763
0.0583734
0.0507831
0.041667
0.0318669
-0.141292
-0.184411
-0.225456
-0.260203
-0.286635
-0.30249
-0.307108
-0.300555
-0.285189
-0.262315
-0.233569
-0.200715
-0.165498
-0.1295
-0.0940704
-0.0602801
-0.0289362
-0.000600719
0.0243698
0.0457646
0.0634694
0.0774268
0.087614
0.0940352
0.0967395
0.0953208
0.0901292
0.0816907
0.0706452
0.0577261
0.0439963
-0.161381
-0.209499
-0.254402
-0.291245
-0.317679
-0.331376
-0.331443
-0.318368
-0.295185
-0.263728
-0.226209
-0.184947
-0.142169
-0.0998412
-0.0595612
-0.0225132
0.0105095
0.0390675
0.0630091
0.0823794
0.0973383
0.108096
0.114867
0.117847
0.117225
0.112623
0.104429
0.093324
0.0798534
0.0647754
0.0491171
-0.151331
-0.194857
-0.23425
-0.264601
-0.283758
-0.289448
-0.281284
-0.260188
-0.229531
-0.191597
-0.149018
-0.104459
-0.0603999
-0.0189284
0.0183681
0.050448
0.0767813
0.0972903
0.112254
0.122182
0.127702
0.129461
0.128051
0.123962
0.117585
0.108722
0.0977751
0.0852767
0.0715838
0.0572248
0.0428882
-0.113766
-0.143881
-0.169308
-0.18578
-0.191731
-0.185476
-0.167232
-0.138437
-0.102439
-0.0617968
-0.0193215
0.0222495
0.0604849
0.0934638
0.119884
0.139095
0.151052
0.156231
0.155508
0.150003
0.140934
0.129489
0.116717
0.103464
0.0903425
0.0774589
0.0651429
0.053662
0.0429351
0.0330459
0.0239485
-0.0599428
-0.0718539
-0.0790604
-0.0783584
-0.0690349
-0.0502254
-0.0228533
0.0111824
0.0488919
0.0876528
0.124734
0.157601
0.184137
0.202834
0.212881
0.214179
0.207289
0.193324
0.173801
0.150472
0.125153
0.0995625
0.0751961
0.0532315
0.0344732
0.0194057
0.00820264
0.000734579
-0.00365768
-0.00548967
-0.00576761
-0.00155508
0.0054032
0.0165763
0.0337989
0.056852
0.0857005
0.118781
0.1539
0.188687
0.220702
0.24755
0.267149
0.277919
0.278936
0.269999
0.251624
0.224981
0.191776
0.154092
0.114207
0.07442
0.0368705
0.00339285
-0.0245934
-0.0461671
-0.0604584
-0.0675123
-0.0679229
-0.0629958
-0.0539066
-0.0426989
0.0493767
0.0719694
0.0977921
0.127319
0.159502
0.193514
0.227357
0.25878
0.28619
0.307548
0.321002
0.325094
0.318902
0.302152
0.27525
0.239263
0.19585
0.147145
0.0955965
0.0437999
-0.00567901
-0.0504768
-0.0885903
-0.118495
-0.139247
-0.14965
-0.149985
-0.141286
-0.12547
-0.104313
-0.0808076
0.0857832
0.118607
0.153334
0.189276
0.224788
0.258474
0.288178
0.311848
0.328718
0.337318
0.336467
0.325405
0.303886
0.272236
0.231361
0.182712
0.128226
0.070217
0.0112317
-0.0460866
-0.0991584
-0.145624
-0.183494
-0.211276
-0.228083
-0.232481
-0.224943
-0.206833
-0.180542
-0.148287
-0.113786
0.105222
0.142389
0.180009
0.216568
0.250106
0.278937
0.30103
0.314739
0.320079
0.31623
0.302704
0.279408
0.246676
0.205289
0.156456
0.10178
0.0432122
-0.0170311
-0.0765781
-0.133001
-0.183941
-0.227234
-0.261054
-0.284024
-0.295347
-0.293443
-0.278868
-0.253123
-0.218876
-0.178554
-0.136305
0.109549
0.146148
0.181866
0.214743
0.242777
0.264266
0.277516
0.281407
0.27662
0.262964
0.240564
0.209857
0.171579
0.126749
0.0766354
0.0227377
-0.033237
-0.0894194
-0.14384
-0.194485
-0.239371
-0.276645
-0.304704
-0.322302
-0.32869
-0.322199
-0.303309
-0.273438
-0.235299
-0.191289
-0.145691
0.103087
0.135941
0.166897
0.193891
0.215096
0.229006
0.234386
0.230666
0.219024
0.19979
0.17354
0.14104
0.103197
0.0610211
0.0156006
-0.0319028
-0.0802351
-0.128051
-0.173921
-0.216338
-0.25375
-0.284619
-0.307531
-0.321298
-0.325118
-0.317227
-0.297851
-0.268116
-0.230584
-0.187426
-0.142835
0.0905055
0.118151
0.143291
0.164032
0.178855
0.186588
0.186484
0.178461
0.164012
0.143823
0.118717
0.0895642
0.0572089
0.0224279
-0.014076
-0.0516472
-0.0896145
-0.127239
-0.163667
-0.197886
-0.228722
-0.254864
-0.274968
-0.287775
-0.292284
-0.286564
-0.270436
-0.244593
-0.21131
-0.17243
-0.131951
0.075384
0.0975181
0.116939
0.132083
0.141808
0.145328
0.142356
0.133193
0.119472
0.102063
0.081844
0.0595887
0.0358889
0.0111236
-0.0145203
-0.0409801
-0.0682076
-0.0960616
-0.124211
-0.152045
-0.17864
-0.202767
-0.223001
-0.237853
-0.245987
-0.245183
-0.234772
-0.214959
-0.187693
-0.154494
-0.11918
0.0597725
0.0765959
0.090773
0.101127
0.106907
0.107706
0.103635
0.0952773
0.0842715
0.0715386
0.0578734
0.0438238
0.0296219
0.0151712
0.000102392
-0.0161156
-0.0340177
-0.0539851
-0.0761012
-0.100029
-0.124948
-0.149569
-0.172243
-0.191134
-0.204471
-0.209626
-0.205434
-0.191657
-0.169958
-0.141629
-0.11041
0.0447663
0.0565789
0.0659041
0.0719142
0.0742194
0.0727436
0.0679336
0.0605936
0.0522993
0.0439582
0.0362319
0.0294136
0.0233694
0.0175487
0.0110747
0.00289651
-0.00800962
-0.0224382
-0.0407717
-0.0628288
-0.087789
-0.114204
-0.140136
-0.163354
-0.181637
-0.19187
-0.192471
-0.182873
-0.164545
-0.138689
-0.109086
0.0315208
0.0387493
0.0435552
0.0453375
0.0440084
0.0397389
0.0332678
0.0256062
0.0182785
0.0122009
0.00795045
0.00563886
0.00486169
0.00472667
0.00397228
0.00115401
-0.0051198
-0.0159495
-0.0319301
-0.0529748
-0.0782297
-0.10609
-0.134356
-0.160457
-0.181799
-0.194795
-0.197577
-0.189398
-0.171621
-0.145471
-0.114853
0.0220258
0.0255873
0.0265596
0.024381
0.0191704
0.0112377
0.00157885
-0.00856219
-0.0176162
-0.0245618
-0.0287738
-0.0301628
-0.0292276
-0.0270221
-0.0250203
-0.0249081
-0.0283231
-0.0365894
-0.0504782
-0.070009
-0.0943532
-0.12185
-0.150169
-0.176556
-0.198201
-0.211172
-0.21347
-0.204294
-0.184943
-0.15672
-0.123612
0.0191125
0.0208213
0.0194871
0.0143544
0.00561749
-0.00640664
-0.0205043
-0.035158
-0.0485895
-0.0595299
-0.0671222
-0.0710897
-0.0718046
-0.0702675
-0.0679725
-0.0666913
-0.0682011
-0.0740009
-0.0850522
-0.101557
-0.122847
-0.147384
-0.172919
-0.196734
-0.216018
-0.226722
-0.22686
-0.215646
-0.194293
-0.164125
-0.129072
0.0255977
0.0282807
0.0272087
0.0211821
0.010309
-0.00523311
-0.0240723
-0.044391
-0.0640024
-0.0812409
-0.0948276
-0.104082
-0.109027
-0.110396
-0.109517
-0.108108
-0.107997
-0.110838
-0.117826
-0.129459
-0.145395
-0.164439
-0.184661
-0.203628
-0.218746
-0.226151
-0.223968
-0.211434
-0.189591
-0.159648
-0.125231
0.0429415
0.0500634
0.0525532
0.0485364
0.0378633
0.0204272
-0.00232619
-0.0282863
-0.0546694
-0.0792966
-0.100313
-0.116457
-0.127213
-0.132868
-0.134432
-0.133447
-0.131727
-0.131063
-0.13293
-0.138227
-0.147099
-0.158885
-0.172195
-0.185094
-0.195407
-0.199749
-0.196418
-0.184634
-0.165147
-0.138879
-0.108884
0.070066
0.084905
0.0941939
0.0952145
0.0874096
0.0702713
0.0452189
0.0146089
-0.018051
-0.0500139
-0.0787648
-0.102354
-0.119611
-0.130254
-0.134863
-0.134717
-0.131553
-0.127276
-0.123658
-0.122054
-0.123197
-0.127087
-0.133022
-0.139713
-0.145536
-0.147827
-0.145077
-0.136442
-0.122283
-0.103081
-0.0811002
0.102997
0.127654
0.145926
0.154182
0.151365
0.136503
0.110893
0.0770576
0.0392551
0.000777344
-0.0352046
-0.0660389
-0.0898639
-0.105786
-0.113893
-0.115143
-0.111136
-0.103842
-0.0952971
-0.0873016
-0.0811818
-0.0776335
-0.076685
-0.0777535
-0.079822
-0.08107
-0.0801969
-0.0762706
-0.0692281
-0.0590417
-0.0470856
0.135562
0.170188
0.197778
0.213847
0.216836
0.205316
0.180389
0.14465
0.10301
0.0592051
0.0169674
-0.0204289
-0.0504897
-0.0717349
-0.083761
-0.08717
-0.0833705
-0.0743227
-0.0622379
-0.0492732
-0.0372639
-0.0275261
-0.020762
-0.0170559
-0.0159802
-0.0165458
-0.0176765
-0.0183831
-0.018228
-0.0167214
-0.0143899
0.161013
0.203585
0.238734
0.261311
0.269338
0.26102
0.237231
0.200538
0.15629
0.108502
0.0612921
0.0183925
-0.0172094
-0.0435453
-0.0597706
-0.0661313
-0.0637943
-0.0546166
-0.0408582
-0.024881
-0.00886736
0.00540632
0.0167073
0.0244018
0.0284095
0.0290203
0.0270602
0.0234958
0.0190104
0.0144077
0.00983314
0.174071
0.220861
0.260153
0.28643
0.297461
0.29123
0.268388
0.231387
0.185711
0.135449
0.0848766
0.0379572
-0.00202672
-0.0327725
-0.05309
-0.0629002
-0.063095
-0.0553358
-0.0417887
-0.024839
-0.00681168
0.0102654
0.0248255
0.035852
0.0428796
0.0457079
0.0448869
0.0412562
0.0355742
0.0287542
0.0213555
0.171728
0.218105
0.25728
0.283757
0.295257
0.289729
0.267637
0.23123
0.185771
0.135184
0.0836296
0.0350325
-0.00727858
-0.0408675
-0.0643368
-0.0773479
-0.0805112
-0.0752168
-0.0634015
-0.0472907
-0.0291385
-0.0109983
0.00544569
0.0189838
0.0289119
0.0347674
0.0368209
0.0356947
0.0320619
0.0267479
0.0204731
0.15502
0.196731
0.231924
0.255501
0.265348
0.259544
0.238421
0.203942
0.16082
0.112581
0.0630102
0.0157263
-0.0261471
-0.0602517
-0.0851378
-0.100298
-0.106084
-0.103573
-0.0943747
-0.0804074
-0.0636747
-0.0460607
-0.0291728
-0.0142378
-0.00205707
0.00683706
0.0124649
0.015193
0.0154998
0.0139936
0.0113286
0.126548
0.160302
0.188583
0.207128
0.214153
0.208093
0.189112
0.158815
0.121066
0.0787762
0.0350982
-0.00692287
-0.0446204
-0.0759334
-0.0995315
-0.114852
-0.122042
-0.121862
-0.115531
-0.104558
-0.0905567
-0.0750853
-0.0595111
-0.0449234
-0.0320867
-0.0214711
-0.0132276
-0.00723802
-0.00323032
-0.000857331
0.000345003
0.0915701
0.11581
0.135981
0.148839
0.153089
0.147453
0.13218
0.1084
0.0789303
0.0459217
0.0117223
-0.0213835
-0.0513715
-0.0766501
-0.0961534
-0.109374
-0.116331
-0.117497
-0.113702
-0.106005
-0.0955647
-0.0835239
-0.0709093
-0.0585652
-0.0471162
-0.0369106
-0.0281863
-0.0209418
-0.0151037
-0.0105276
-0.00696284
0.0568091
0.0716745
0.0840315
0.0917101
0.0939104
0.0896845
0.07924
0.0633711
0.0437894
0.0218563
-0.000930929
-0.0231042
-0.0433495
-0.0606181
-0.0741869
-0.0836811
-0.089057
-0.0905641
-0.0886842
-0.0840545
-0.0773898
-0.0694074
-0.0607674
-0.0520273
-0.0436186
-0.0357728
-0.0286855
-0.0224313
-0.0170389
-0.012459
-0.00863707
-0.118625
-0.15535
-0.190995
-0.221798
-0.246223
-0.262117