# vtk DataFile Version 2.0
Func
ASCII
DATASET RECTILINEAR_GRID
DIMENSIONS 31 31 31
X_COORDINATES 31 double
-9.67742
-9.03226
-8.3871
-7.74194
-7.09677
-6.45161
-5.80645
-5.16129
-4.51613
-3.87097
-3.22581
-2.58065
-1.93548
-1.29032
-0.645161
0
0.645161
1.29032
1.93548
2.58065
3.22581
3.87097
4.51613
5.16129
5.80645
6.45161
7.09677
7.74194
8.3871
9.03226
9.67742
Y_COORDINATES 31 double
-9.67742
-9.03226
-8.3871
-7.74194
-7.09677
-6.45161
-5.80645
-5.16129
-4.51613
-3.87097
-3.22581
-2.58065
-1.93548
-1.29032
-0.645161
0
0.645161
1.29032
1.93548
2.58065
3.22581
3.87097
4.51613
5.16129
5.80645
6.45161
7.09677
7.74194
8.3871
9.03226
9.67742
Z_COORDINATES 31 double
-9.67742
-9.03226
-8.3871
-7.74194
-7.09677
-6.45161
-5.80645
-5.16129
-4.51613
-3.87097
-3.22581
-2.58065
-1.93548
-1.29032
-0.645161
0
0.645161
1.29032
1.93548
2.58065
3.22581
3.87097
4.51613
5.16129
5.80645
6.45161
7.09677
7.74194
8.3871
9.03226
9.67742
POINT_DATA 29791
SCALARS data double 1
LOOKUP_TABLE default
-0.00998787
-0.0128728
-0.015359
-0.0171222
-0.0179699
-0.0176752
-0.0162051
-0.0136002
-0.0100953
-0.00590099
-0.00129484
0.00339979
0.00783622
0.0116735
0.0146037
0.0163791
0.0168345
0.0159053
0.0136379
0.0101914
0.0058299
0.000903412
-0.00418452
-0.00901175
-0.0131856
-0.0162523
-0.0179528
-0.0181406
-0.0170337
-0.0147606
-0.0118977
-0.0141143
-0.0180064
-0.0211948
-0.0232013
-0.0237248
-0.0224591
-0.019362
-0.0145025
-0.00827496
-0.00104044
0.00673232
0.0145011
0.0216886
0.0277299
0.0321192
0.0344552
0.0344792
0.0321047
0.0274346
0.0207646
0.0125675
0.00346052
-0.00585056
-0.0146324
-0.0222049
-0.0277681
-0.0309038
-0.0313871
-0.0295648
-0.0256959
-0.020699
-0.0169107
-0.0212485
-0.024531
-0.0261127
-0.0256079
-0.0226607
-0.0172136
-0.00942072
0.000151697
0.0109596
0.0223097
0.0334095
0.0434239
0.0515435
0.0570532
0.0593979
0.0582367
0.0534858
0.0453411
0.0342813
0.0210436
0.00657279
-0.00806262
-0.0217615
-0.0335088
-0.0421073
-0.0469357
-0.0477257
-0.0449799
-0.0391166
-0.0314896
-0.0183839
-0.022718
-0.0256441
-0.0263539
-0.0244086
-0.0193952
-0.0113066
-0.000393104
0.0126075
0.0269555
0.0417246
0.0558687
0.0682975
0.0779664
0.083966
0.0856077
0.0824941
0.0745737
0.0621668
0.0459685
0.0270121
0.00659954
-0.0138127
-0.0327362
-0.048809
-0.0604175
-0.0667566
-0.0674921
-0.0633483
-0.0549278
-0.0440821
-0.0197107
-0.024068
-0.0267246
-0.0267396
-0.0236338
-0.0169614
-0.00675586
0.00663563
0.0223174
0.0393733
0.0566698
0.0729402
0.0868753
0.0972342
0.102952
0.103243
0.0976828
0.0862761
0.0694816
0.0482144
0.0237981
-0.00212381
-0.027731
-0.0511779
-0.0707895
-0.0845538
-0.0915176
-0.0913286
-0.0849524
-0.0732033
-0.0584441
-0.0224449
-0.0275027
-0.0307267
-0.0310568
-0.0279749
-0.0209909
-0.0101585
0.00411336
0.0208086
0.0388906
0.0570843
0.0739714
0.0880946
0.0980827
0.102772
0.101322
0.0933103
0.0788017
0.0583798
0.0331448
0.0046572
-0.0251658
-0.0542177
-0.0803772
-0.101735
-0.115945
-0.121967
-0.119477
-0.109701
-0.0936741
-0.0742471
-0.0273065
-0.0341151
-0.0391834
-0.0413713
-0.0401158
-0.0348638
-0.0256464
-0.012868
0.002401
0.0190992
0.0359166
0.0513947
0.0640358
0.0724348
0.0754073
0.0721118
0.0621482
0.0456319
0.0232255
-0.00386275
-0.0339402
-0.0649418
-0.0946115
-0.120691
-0.141164
-0.153464
-0.156556
-0.150189
-0.135844
-0.114762
-0.0901813
-0.0338772
-0.043396
-0.0515274
-0.0571118
-0.05954
-0.0581836
-0.0530003
-0.0443077
-0.0331402
-0.020465
-0.00749393
0.00441103
0.013843
0.0194782
0.0202014
0.0152264
0.00419317
-0.0127575
-0.034952
-0.0611815
-0.0897622
-0.118646
-0.145605
-0.168416
-0.185116
-0.193075
-0.191357
-0.179829
-0.160184
-0.13382
-0.104212
-0.0401632
-0.0526542
-0.0643471
-0.0741602
-0.0814577
-0.0855531
-0.0862924
-0.0838288
-0.0790527
-0.0727135
-0.0657846
-0.059386
-0.0546935
-0.0528264
-0.0547353
-0.0610916
-0.0721986
-0.08792
-0.107647
-0.130289
-0.154327
-0.177911
-0.19903
-0.21569
-0.22614
-0.227881
-0.220159
-0.202988
-0.178192
-0.147242
-0.113647
-0.0431636
-0.0577653
-0.0723163
-0.0859443
-0.098039
-0.107916
-0.115299
-0.120127
-0.123033
-0.124447
-0.124982
-0.125384
-0.126473
-0.12905
-0.133812
-0.141259
-0.151622
-0.16479
-0.180288
-0.197249
-0.214459
-0.23043
-0.243544
-0.252196
-0.255002
-0.249776
-0.236014
-0.213879
-0.185209
-0.151443
-0.115891
-0.0397712
-0.0544044
-0.069777
-0.0853784
-0.100708
-0.115185
-0.12844
-0.14019
-0.150712
-0.160049
-0.168375
-0.175972
-0.183207
-0.19048
-0.198165
-0.206542
-0.215747
-0.225711
-0.236129
-0.246433
-0.255813
-0.263258
-0.267665
-0.267943
-0.263172
-0.25164
-0.233122
-0.207911
-0.177717
-0.143836
-0.109151
-0.027946
-0.0396586
-0.052819
-0.0674259
-0.08319
-0.099766
-0.116749
-0.133673
-0.150387
-0.166539
-0.181834
-0.196052
-0.209065
-0.220825
-0.23134
-0.240644
-0.248756
-0.255642
-0.261178
-0.265123
-0.267107
-0.266651
-0.263222
-0.256295
-0.245452
-0.229568
-0.208686
-0.183186
-0.154516
-0.123718
-0.0930628
-0.00770951
-0.0134038
-0.0210702
-0.0313254
-0.0441877
-0.0596696
-0.0774101
-0.0968297
-0.117325
-0.138188
-0.158683
-0.178112
-0.195861
-0.211438
-0.224486
-0.23478
-0.242209
-0.246756
-0.248462
-0.247388
-0.243591
-0.237104
-0.227948
-0.216143
-0.201754
-0.184282
-0.163997
-0.141313
-0.1173
-0.09267
-0.0689491
0.0184431
0.0211076
0.0215184
0.0184017
0.0113744
-1.48829e-05
-0.0155201
-0.03453
-0.0560147
-0.0789904
-0.10236
-0.12502
-0.145939
-0.164233
-0.179218
-0.19043
-0.197631
-0.200802
-0.20011
-0.195868
-0.188493
-0.178457
-0.166259
-0.152387
-0.137313
-0.121135
-0.104286
-0.0871627
-0.0703756
-0.0542741
-0.0395769
0.0459221
0.0577406
0.0672705
0.072636
0.0730932
0.0677472
0.0566889
0.040492
0.0205361
-0.0020183
-0.0258259
-0.0494904
-0.071672
-0.0911955
-0.107124
-0.11881
-0.125913
-0.128403
-0.126537
-0.120815
-0.111926
-0.100679
-0.0879344
-0.0745345
-0.0612495
-0.0486859
-0.0373694
-0.0276267
-0.0195846
-0.0132303
-0.00848291
0.0691715
0.0889956
0.106701
0.119959
0.127743
0.1288
0.123072
0.111059
0.0943752
0.0742568
0.0521752
0.0296838
0.00829332
-0.0106565
-0.0260886
-0.0372539
-0.0437615
-0.0455888
-0.0430621
-0.0368143
-0.0277203
-0.0168157
-0.00519988
0.00605549
0.0160006
0.0236464
0.0284471
0.0301836
0.0291992
0.0258348
0.0209087
0.0832188
0.108112
0.131189
0.14989
0.16305
0.169221
0.168254
0.160581
0.147913
0.131481
0.112768
0.0933481
0.0747598
0.0583648
0.0452511
0.0361618
0.0314605
0.0311183
0.034732
0.0415663
0.0506234
0.0607317
0.0706602
0.0792241
0.0854023
0.0879619
0.0864005
0.0806369
0.0714382
0.0594244
0.0460521
0.0851564
0.111085
0.135547
0.156016
0.17136
0.180151
0.182238
0.178027
0.169197
0.156917
0.14259
0.127699
0.113674
0.101765
0.0929407
0.0878225
0.0866538
0.0892887
0.0952143
0.103594
0.113339
0.123204
0.131905
0.138234
0.141186
0.139411
0.132505
0.120548
0.104665
0.0857074
0.0656502
0.0750569
0.0979178
0.119641
0.137969
0.151979
0.160469
0.163386
0.161175
0.155376
0.147071
0.137529
0.128054
0.119871
0.114006
0.111199
0.111846
0.115982
0.123272
0.133049
0.144355
0.156021
0.166756
0.175277
0.180412
0.181232
0.176378
0.165583
0.149101
0.128348
0.104367
0.0795158
0.0560078
0.072688
0.0884852
0.101583
0.11139
0.117084
0.118796
0.117061
0.113226
0.108287
0.103351
0.0995049
0.097711
0.098704
0.102923
0.110472
0.12111
0.134264
0.149073
0.164439
0.179109
0.191768
0.20116
0.206187
0.206038
0.199417
0.186222
0.16689
0.143049
0.1159
0.0880356
0.0332415
0.0423801
0.0507887
0.0571629
0.0612839
0.062771
0.061977
0.059563
0.0566743
0.0542343
0.0531995
0.0544382
0.0586409
0.0662381
0.077351
0.0917703
0.108963
0.128105
0.148132
0.167809
0.185808
0.200809
0.211606
0.217204
0.216926
0.209597
0.195295
0.17462
0.14933
0.120741
0.0915222
0.0126301
0.0148633
0.0164124
0.0164411
0.0150568
0.0122762
0.00865804
0.00498641
0.00224
0.00129433
0.00298436
0.00799489
0.0167835
0.0295159
0.0460352
0.0658583
0.0882001
0.112021
0.136095
0.159085
0.179629
0.196432
0.208373
0.214582
0.214527
0.207199
0.192843
0.172189
0.147019
0.118704
0.0898105
-0.000962426
-0.00332857
-0.00642802
-0.0107699
-0.0160408
-0.021962
-0.0278349
-0.0327931
-0.0359593
-0.0364861
-0.0336185
-0.0267958
-0.0157201
-0.00040683
0.018798
0.0412298
0.0659438
0.091776
0.117424
0.141527
0.162756
0.179902
0.191969
0.198238
0.198329
0.19144
0.177949
0.158654
0.135237
0.10903
0.0823157
-0.00498679
-0.00875572
-0.0133783
-0.0192304
-0.0259533
-0.0331902
-0.0402048
-0.0461134
-0.0500692
-0.0512417
-0.0489149
-0.0425846
-0.0320221
-0.017317
0.00111474
0.0225534
0.0460231
0.0703622
0.0943099
0.116589
0.135995
0.151478
0.162218
0.167673
0.16762
0.161496
0.149763
0.133201
0.113257
0.0911119
0.0685863
0.00021552
-0.00184427
-0.00491386
-0.0094288
-0.0151404
-0.0217976
-0.0287318
-0.0351176
-0.0400832
-0.0428166
-0.0426103
-0.0389574
-0.0316133
-0.0206364
-0.00639085
0.0104794
0.0291035
0.0484561
0.0674427
0.0849821
0.100088
0.111941
0.119943
0.123751
0.123289
0.118265
0.109152
0.0966315
0.081785
0.0655285
0.0490892
0.0117978
0.0136208
0.0142878
0.0131586
0.0102624
0.00561083
-0.000281007
-0.0067098
-0.0127557
-0.017638
-0.0206457
-0.0212323
-0.0190772
-0.0141273
-0.00659975
0.00304338
0.014147
0.025931
0.0375691
0.0482635
0.0573169
0.0641883
0.0685298
0.070199
0.0692511
0.0656694
0.0598755
0.052376
0.0438044
0.034721
0.0256959
0.0250546
0.031413
0.0365102
0.0394739
0.0400797
0.0380529
0.0337118
0.0275989
0.0206613
0.0136238
0.00718882
0.00194477
-0.00169398
-0.00352992
-0.00358821
-0.0020957
0.000565508
0.00391631
0.00744674
0.0106807
0.0132323
0.0148465
0.0154157
0.014977
0.0136857
0.0117678
0.00954484
0.00731227
0.00524313
0.00351406
0.00210069
0.0353632
0.0453262
0.054052
0.0604608
0.0641212
0.0645122
0.0617643
0.0562507
0.0488897
0.0403191
0.0312009
0.022136
0.0136079
0.00594025
-0.000711917
-0.00634803
-0.0110842
-0.0151081
-0.0186284
-0.0218234
-0.0248001
-0.0275702
-0.0300483
-0.0320669
-0.0334144
-0.0336939
-0.0327061
-0.0303546
-0.0268609
-0.0223795
-0.0174294
0.0388577
0.0501893
0.0604698
0.0685395
0.0738627
0.0758224
0.0743785
0.0697595
0.0627761
0.0539443
0.0438358
0.0330049
0.0219401
0.0110253
0.000529249
-0.00938703
-0.0186428
-0.027207
-0.0350631
-0.0421731
-0.048451
-0.0537511
-0.0578774
-0.0606031
-0.0617127
-0.0607425
-0.0575983
-0.0523629
-0.0454746
-0.0373052
-0.02867
0.0343764
0.0445796
0.0540413
0.0616853
0.0670219
0.0694174
0.0688346
0.0653653
0.0596308
0.0520022
0.0429167
0.0328194
0.0221281
0.0112015
0.000329379
-0.0102644
-0.0204058
-0.0299521
-0.0387716
-0.0467207
-0.0536305
-0.0593013
-0.0635167
-0.0660617
-0.0667608
-0.0652
-0.061389
-0.0554052
-0.0477936
-0.0389655
-0.0298036
0.0242357
0.0314519
0.0383122
0.0439189
0.0479587
0.0499334
0.0497858
0.0475768
0.0436845
0.0383328
0.0318017
0.0243879
0.0163837
0.00805484
-0.000366752
-0.00868274
-0.0167208
-0.0243265
-0.0313537
-0.037653
-0.0430661
-0.0474246
-0.0505621
-0.0523259
-0.0526058
-0.0511329
-0.0479123
-0.0430385
-0.0369719
-0.0299915
-0.0229087
-0.0134776
-0.0174744
-0.0209453
-0.0235254
-0.0249233
-0.0248443
-0.0232167
-0.0200415
-0.0156151
-0.0101948
-0.00413345
0.00214386
0.00816955
0.0134719
0.0176134
0.020231
0.0210695
0.0200104
0.0170903
0.0125074
0.00661211
-0.000116229
-0.00711509
-0.0137892
-0.0195759
-0.0238077
-0.0261337
-0.0263256
-0.0246724
-0.0214025
-0.0171748
-0.0184803
-0.0236861
-0.027961
-0.0307526
-0.0316293
-0.0302133
-0.0264095
-0.0202242
-0.0121608
-0.00266767
0.00765437
0.0180912
0.0278653
0.0361986
0.0423772
0.0458185
0.046127
0.0431414
0.0369638
0.0279699
0.0167904
0.00426954
-0.00861301
-0.0208285
-0.0314097
-0.0391857
-0.0436082
-0.0443328
-0.0417949
-0.0364104
-0.0292619
-0.0214505
-0.0269886
-0.0310975
-0.033032
-0.0322414
-0.0282947
-0.0210724
-0.0106833
0.00214385
0.016715
0.0321243
0.0473131
0.0611449
0.0724963
0.0803532
0.0839067
0.0826339
0.0763645
0.0653193
0.0501226
0.0317714
0.0115689
-0.00899175
-0.0283579
-0.04508
-0.0574048
-0.0645129
-0.0659895
-0.0624496
-0.0545469
-0.0439042
-0.0225376
-0.0277224
-0.0309448
-0.0312735
-0.0280741
-0.0208387
-0.00952752
0.00562145
0.0236457
0.0435747
0.0641706
0.0840102
0.101586
0.115429
0.124234
0.126987
0.12307
0.112343
0.0951959
0.0725548
0.0458387
0.0168647
-0.0123108
-0.0395687
-0.0629469
-0.0800689
-0.0898663
-0.0918113
-0.0867888
-0.0757301
-0.0608861
-0.0234626
-0.0283221
-0.0307396
-0.029633
-0.0243023
-0.014197
0.000656014
0.0198812
0.0422921
0.0666576
0.0914328
0.114863
0.13511
0.150403
0.159193
0.160304
0.153063
0.137396
0.113883
0.0837635
0.0488786
0.0115467
-0.0256362
-0.0600167
-0.089158
-0.110076
-0.121499
-0.122857
-0.115319
-0.100129
-0.0801922
-0.0265884
-0.0321301
-0.0349616
-0.0338573
-0.0280518
-0.0169359
-0.000572618
0.0205728
0.0451343
0.0716927
0.0984804
0.123502
0.14468
0.160027
0.167826
0.166798
0.15625
0.136182
0.107344
0.0712474
0.0300822
-0.0134218
-0.0562326
-0.0952721
-0.127735
-0.150112
-0.161019
-0.159903
-0.148245
-0.127608
-0.101533
-0.0330029
-0.0407864
-0.0459302
-0.0470929
-0.0434377
-0.0342749
-0.0196368
1.90465e-05
0.0232348
0.0485381
0.0740891
0.0978086
0.117532
0.131196
0.137024
0.13371
0.120574
0.0976754
0.0658744
0.0268392
-0.0170368
-0.0627927
-0.107156
-0.146823
-0.178802
-0.199226
-0.206723
-0.200835
-0.183341
-0.156099
-0.123165
-0.0421472
-0.0536387
-0.0629603
-0.0687157
-0.0699996
-0.0660293
-0.0567258
-0.042417
-0.0245249
-0.00440072
0.0162375
0.0354275
0.0511112
0.0613164
0.0643423
0.0589423
0.0444761
0.0210293
-0.0105274
-0.0485222
-0.0905652
-0.133706
-0.174689
-0.210242
-0.237421
-0.252238
-0.253464
-0.240806
-0.216288
-0.181991
-0.142289
-0.0511713
-0.0668544
-0.0812146
-0.0929147
-0.101016
-0.104669
-0.103621
-0.0979565
-0.0889042
-0.0775103
-0.0651623
-0.0534885
-0.0442303
-0.0390826
-0.0395255
-0.0466551
-0.0610423
-0.0826166
-0.110605
-0.143507
-0.179165
-0.214905
-0.247778
-0.274819
-0.293383
-0.299643
-0.29264
-0.272286
-0.240754
-0.200221
-0.155112
-0.0557193
-0.0744632
-0.092997
-0.110214
-0.125225
-0.137189
-0.145664
-0.150425
-0.152335
-0.15198
-0.150232
-0.148188
-0.147081
-0.148154
-0.152529
-0.161063
-0.174225
-0.191994
-0.213788
-0.238436
-0.264221
-0.288991
-0.310361
-0.325929
-0.333572
-0.329917
-0.314356
-0.287014
-0.250072
-0.205646
-0.157902
-0.0512511
-0.0701598
-0.0900637
-0.110299
-0.13015
-0.148919
-0.166016
-0.180905
-0.193929
-0.205114
-0.214692
-0.223087
-0.230877
-0.238722
-0.247274
-0.257076
-0.26846
-0.281464
-0.295762
-0.310616
-0.3249
-0.33716
-0.345763
-0.349057
-0.345593
-0.332709
-0.310179
-0.27831
-0.239122
-0.194499
-0.148043
-0.0347533
-0.0496515
-0.0666508
-0.0857462
-0.10655
-0.128663
-0.151447
-0.174126
-0.196405
-0.217732
-0.237651
-0.255853
-0.272188
-0.286661
-0.299387
-0.310541
-0.320287
-0.328709
-0.335749
-0.341147
-0.344425
-0.344909
-0.341807
-0.334298
-0.321679
-0.30217
-0.275905
-0.243311
-0.206078
-0.165704
-0.124967
-0.00619892
-0.0126778
-0.0221024
-0.0352966
-0.0523357
-0.0732774
-0.0975539
-0.124269
-0.152444
-0.181001
-0.208839
-0.234941
-0.258442
-0.27869
-0.295257
-0.307933
-0.316687
-0.321623
-0.32292
-0.320764
-0.315304
-0.306624
-0.294749
-0.279668
-0.261397
-0.239113
-0.213233
-0.184231
-0.153323
-0.121509
-0.0905706
0.0308403
0.0361182
0.0379619
0.0346486
0.0255583
0.0100805
-0.0114019
-0.038003
-0.0680914
-0.10018
-0.132637
-0.163843
-0.192315
-0.21682
-0.236438
-0.250601
-0.259083
-0.261977
-0.259643
-0.252635
-0.241632
-0.227369
-0.210576
-0.19194
-0.172089
-0.151118
-0.129631
-0.108066
-0.0870781
-0.0671087
-0.0488803
0.0697396
0.0878958
0.1025
0.110994
0.112226
0.105029
0.0895392
0.0665299
0.0381711
0.00621187
-0.0273473
-0.0604542
-0.0911677
-0.117815
-0.1391
-0.154169
-0.162637
-0.164571
-0.160457
-0.151118
-0.137634
-0.121229
-0.103174
-0.0846821
-0.0668328
-0.0505079
-0.0363886
-0.0248157
-0.0158442
-0.00936572
-0.00507273
0.102465
0.131827
0.15783
0.177289
0.188634
0.190257
0.182058
0.164655
0.140579
0.111693
0.0801851
0.0483405
0.0183571
-0.00784291
-0.0287458
-0.0433399
-0.0511508
-0.0522469
-0.0472028
-0.0370296
-0.0230725
-0.00688595
0.0099092
0.0257597
0.0393132
0.0490963
0.0544493
0.05518
0.0518143
0.0449571
0.0358367
0.121837
0.158165
0.19153
0.218439
0.237118
0.245727
0.244022
0.232493
0.213821
0.18986
0.162815
0.135006
0.108675
0.0857832
0.0678709
0.0559525
0.050476
0.0513113
0.0577857
0.0687511
0.0826937
0.0978701
0.112473
0.124786
0.133348
0.136312
0.133125
0.12378
0.109324
0.0907827
0.0701478
0.123698
0.161185
0.196186
0.225276
0.246735
0.258759
0.261109
0.254231
0.240752
0.222434
0.201366
0.179732
0.159622
0.142837
0.130751
0.124212
0.123506
0.128346
0.137917
0.150938
0.165781
0.180611
0.193555
0.202875
0.207133
0.204315
0.194041
0.176517
0.153232
0.125549
0.0960511
0.108239
0.14101
0.171745
0.197435
0.216666
0.227933
0.23116
0.22687
0.217467
0.204586
0.190114
0.175978
0.163968
0.155561
0.151804
0.153224
0.159812
0.171025
0.185837
0.202812
0.220223
0.236193
0.24887
0.256583
0.258019
0.251158
0.235847
0.212528
0.183038
0.149011
0.113441
0.0800442
0.103683
0.125638
0.143558
0.156514
0.163492
0.164712
0.160873
0.154067
0.145797
0.137719
0.131441
0.128366
0.129552
0.135607
0.146639
0.162247
0.181553
0.203264
0.225762
0.247222
0.265753
0.27957
0.287132
0.287307
0.278198
0.259912
0.233132
0.199947
0.1622
0.123121
0.046793
0.0594468
0.0706291
0.0787399
0.083394
0.0841461
0.0815682
0.0765964
0.0709931
0.0661602
0.0635298
0.0643897
0.069749
0.0802186
0.0959448
0.116581
0.14131
0.168892
0.197758
0.226106
0.252026
0.273645
0.289277
0.297553
0.297559
0.287603
0.268064
0.239856
0.205206
0.1661
0.125809
0.0170488
0.0197624
0.0210753
0.0200556
0.0167959
0.0113583
0.00463951
-0.002199
-0.00766186
-0.0104176
-0.00921133
-0.00302391
0.00881248
0.0265208
0.0498394
0.0780233
0.109889
0.143891
0.178237
0.210988
0.240206
0.264081
0.281071
0.290014
0.29023
0.280302
0.260859
0.232995
0.198949
0.16075
0.121501
-0.00215714
-0.00593411
-0.011164
-0.0183345
-0.027051
-0.036919
-0.0468268
-0.0554621
-0.0614898
-0.0636194
-0.0607133
-0.0519348
-0.0368512
-0.0155078
0.0115541
0.0433225
0.0783802
0.115005
0.151295
0.185294
0.215124
0.239118
0.255942
0.264672
0.264873
0.255462
0.237258
0.211451
0.180132
0.145244
0.109493
-0.00722861
-0.0127924
-0.0199489
-0.0290418
-0.0396071
-0.0511559
-0.0625254
-0.0723695
-0.0793958
-0.0823397
-0.0801218
-0.0719902
-0.0576169
-0.0371605
-0.0112694
0.0189588
0.0520584
0.0863098
0.119874
0.150923
0.177772
0.198998
0.213538
0.220748
0.220431
0.211895
0.196058
0.174083
0.147748
0.118746
0.0891633
0.00118617
-0.00163139
-0.00622125
-0.0130739
-0.0218818
-0.0322987
-0.0432786
-0.0535733
-0.0618408
-0.0668463
-0.0675253
-0.0631258
-0.0533017
-0.038171
-0.0183128
0.00528013
0.0312905
0.0581939
0.0843942
0.10835
0.128699
0.144362
0.154609
0.159094
0.157849
0.15061
0.138278
0.121863
0.102673
0.081994
0.0611118
0.0187778
0.0218287
0.0229483
0.0212882
0.0168416
0.00963878
0.000475131
-0.00960693
-0.0191775
-0.0270518
-0.0321643
-0.03371
-0.0312377
-0.0247078
-0.0144899
-0.00131691
0.013804
0.0297024
0.0451697
0.0590769
0.0704835
0.0787161
0.0834103
0.0845164
0.0822631
0.0768185
0.0689591
0.0594275
0.0489634
0.0383246
0.0279081
0.0385644
0.0483471
0.0561075
0.0606015
0.0614583
0.0583323
0.0517032
0.0423456
0.0317451
0.0209983
0.0111533
0.00307078
-0.00266579
-0.00580974
-0.00645344
-0.00498913
-0.00202847
0.00169415
0.00542829
0.00851023
0.010449
0.0109816
0.0100876
0.00797355
0.00501091
0.00174316
-0.00125567
-0.00356811
-0.00503095
-0.00544618
-0.00522787
0.053834
0.0689457
0.0821115
0.091755
0.0972077
0.0977956
0.0937022
0.0854264
0.0744204
0.0616478
0.0480925
0.0346302
0.0219436
0.0104638
0.000363202
-0.00841634
-0.0160967
-0.0229868
-0.0293993
-0.0355672
-0.0415828
-0.047365
-0.0526651
-0.0570992
-0.0602248
-0.0612426
-0.0598098
-0.0558159
-0.0495912
-0.0414173
-0.0323643
0.0588536
0.0759785
0.0914409
0.103549
0.111492
0.114477
0.112416
0.105584
0.0952712
0.0822579
0.0673915
0.0514781
0.0352088
0.0191072
0.00351808
-0.0113756
-0.0255022
-0.0388476
-0.0513959
-0.063069
-0.0736875
-0.0829562
-0.0904833
-0.0958196
-0.0985344
-0.0977441
-0.0932995
-0.0853726
-0.0745441
-0.061402
-0.0473534
0.0521372
0.0676009
0.081862
0.0933659
0.101367
0.105025
0.104267
0.0991659
0.0907214
0.0794968
0.0661414
0.0513039
0.035579
0.0194628
0.00334297
-0.0124934
-0.0278269
-0.0424727
-0.0562441
-0.0689128
-0.080189
-0.0897164
-0.097096
-0.101921
-0.103843
-0.102085
-0.0966783
-0.0877672
-0.0760875
-0.0622805
-0.0477617
0.0370735
0.0481217
0.0585383
0.0670666
0.0731973
0.076234
0.0760873
0.0728218
0.0670487
0.0591123
0.0494323
0.0384457
0.0265727
0.0141864
0.00160454
-0.0109073
-0.0231187
-0.0348176
-0.0457919
-0.055809
-0.0646058
-0.0718895
-0.0773582
-0.0807236
-0.0817604
-0.0799631
-0.0753366
-0.0680335
-0.0587074
-0.047826
-0.0365998
-0.0142672
-0.0187247
-0.022767
-0.0260572
-0.0282774
-0.0291304
-0.0284524
-0.0261887
-0.0225778
-0.017821
-0.0122268
-0.00619519
-0.000190877
0.00529401
0.00978189
0.0128548
0.0141953
0.0136239
0.0111243
0.00685856
0.00116173
-0.00547951
-0.012474
-0.0191822
-0.0249872
-0.0291437
-0.0312306
-0.0310287
-0.0288265
-0.0248653
-0.0198458
-0.018719
-0.0242324
-0.0289456
-0.0323422
-0.0339616
-0.0334364
-0.030541
-0.0252122
-0.0178728
-0.00890276
0.00114563
0.0115771
0.0216002
0.0303897
0.0371575
0.0412295
0.0421129
0.0395574
0.0335953
0.024564
0.0130936
6.59853e-05
-0.0134668
-0.0263797
-0.0375958
-0.0457987
-0.0503148
-0.0508176
-0.0477284
-0.041492
-0.0332675
-0.0204734
-0.0258469
-0.0298693
-0.0318469
-0.0311915
-0.0274914
-0.0204787
-0.0102024
0.00269507
0.0175725
0.0335462
0.0495387
0.0643526
0.0767641
0.0856302
0.09
0.0892139
0.0829887
0.0714729
0.0552731
0.0354303
0.013351
-0.00931743
-0.0308359
-0.0495552
-0.0634787
-0.0715743
-0.0734537
-0.0697013
-0.0610266
-0.0491771
-0.0198397
-0.0241355
-0.0264214
-0.0258147
-0.0216439
-0.0134271
-0.000981591
0.0154839
0.0350768
0.0568331
0.0794777
0.101498
0.121248
0.13708
0.147484
0.151244
0.147562
0.136171
0.1174
0.0922019
0.062115
0.0291597
-0.00433567
-0.0359404
-0.0633712
-0.0838815
-0.0960859
-0.0994793
-0.0949003
-0.083363
-0.0673184
-0.0191679
-0.0224001
-0.0229618
-0.0198127
-0.0122099
0.000367015
0.018021
0.0403605
0.0662324
0.0943442
0.123031
0.150357
0.174246
0.192652
0.203737
0.206055
0.198713
0.181496
0.154951
0.120404
0.0799085
0.0361082
-0.00799062
-0.0492783
-0.0848585
-0.111233
-0.1267
-0.130714
-0.124377
-0.109053
-0.0879353
-0.021522
-0.0249793
-0.0253223
-0.0213462
-0.0122276
0.00261687
0.0232474
0.0491396
0.0789151
0.111024
0.143496
0.174058
0.200296
0.219855
0.230641
0.231041
0.220101
0.197673
0.164499
0.122236
0.0733811
0.0211054
-0.0310137
-0.0793029
-0.120365
-0.150036
-0.166393
-0.168922
-0.159017
-0.138406
-0.111004
-0.0284002
-0.0341162
-0.0366843
-0.0347444
-0.0273769
-0.0139053
0.00577344
0.0311176
0.0606177
0.0926232
0.12503
0.155411
0.181194
0.199868
0.209219
0.207554
0.193897
0.168151
0.131181
0.0848463
0.0319121
-0.0241324
-0.0793705
-0.129799
-0.171738
-0.200553
-0.214253
-0.212447
-0.196813
-0.169412
-0.134761
-0.0392381
-0.0492087
-0.0565086
-0.0596773
-0.0576955
-0.049775
-0.0356649
-0.0157717
0.00841407
0.035355
0.0630524
0.0891725
0.111218
0.126739
0.133562
0.130022
0.115162
0.0888938
0.0520901
0.00662128
-0.0447293
-0.0984512
-0.150607
-0.197181
-0.234501
-0.257746
-0.265039
-0.256186
-0.233105
-0.198107
-0.156083
-0.0505907
-0.0656525
-0.0790214
-0.0892605
-0.0952906
-0.0962346
-0.0916171
-0.0815621
-0.0673478
-0.0501659
-0.0316465
-0.013755
0.00135495
0.0115295
0.014826
0.00972821
-0.00466316
-0.0284712
-0.0609475
-0.100426
-0.14439
-0.189644
-0.232588
-0.26955
-0.29718
-0.310828
-0.308901
-0.291449
-0.26053
-0.218566
-0.170507
-0.0570595
-0.0760745
-0.0947435
-0.111854
-0.126367
-0.1374
-0.14424
-0.146632
-0.145429
-0.141276
-0.135196
-0.128529
-0.122836
-0.119745
-0.120787
-0.127209
-0.139804
-0.158763
-0.183581
-0.21299
-0.245005
-0.277055
-0.306211
-0.32947
-0.344099
-0.345984
-0.333945
-0.308274
-0.27103
-0.224555
-0.173492
-0.0529377
-0.072571
-0.0933541
-0.114559
-0.135342
-0.154963
-0.172537
-0.187417
-0.199836
-0.20976
-0.217437
-0.223398
-0.228412
-0.233406
-0.239349
-0.24711
-0.257323
-0.27026
-0.285727
-0.302993
-0.320792
-0.337405
-0.350821
-0.358948
-0.359877
-0.350356
-0.329684
-0.298342
-0.258216
-0.211363
-0.161758
-0.0343523
-0.0496422
-0.0674771
-0.0878834
-0.110405
-0.134622
-0.159624
-0.184438
-0.208536
-0.231171
-0.251752
-0.269911
-0.285525
-0.298718
-0.309801
-0.319189
-0.32731
-0.334489
-0.340862
-0.346281
-0.350283
-0.352106
-0.350776
-0.345227
-0.334473
-0.316347
-0.290622
-0.257877
-0.219649
-0.177526
-0.134511
-0.00110934
-0.00674414
-0.0160038
-0.029888
-0.0485013
-0.0719178
-0.0993751
-0.129716
-0.161585
-0.193592
-0.224348
-0.252613
-0.277381
-0.297962
-0.313988
-0.325392
-0.332352
-0.335211
-0.334389
-0.330284
-0.323202
-0.313317
-0.300669
-0.285197
-0.266815
-0.244533
-0.218528
-0.189368
-0.158101
-0.125707
-0.0940231
0.0425117
0.0505823
0.0543912
0.0518684
0.0422441
0.0248409
0.000116166
-0.030745
-0.0656042
-0.102566
-0.139588
-0.174684
-0.206082
-0.232363
-0.252543
-0.266097
-0.272945
-0.273401
-0.268095
-0.257869
-0.243676
-0.226487
-0.20722
-0.186681
-0.165551
-0.14397
-0.122409
-0.101325
-0.0811811
-0.0622939
-0.0452691
0.0884176
0.11156
0.130268
0.141471
0.143746
0.135811
0.117735
0.0906029
0.0571937
0.0197231
-0.0193157
-0.0574003
-0.0921884
-0.121709
-0.144495
-0.159655
-0.166886
-0.166453
-0.159114
-0.146027
-0.128623
-0.108469
-0.0871424
-0.066103
-0.0466009
-0.0297329
-0.016135
-0.00607513
0.000592902
0.00419973
0.00530726
0.126746
0.16292
0.194872
0.218783
0.232722
0.234927
0.225109
0.204187
0.175362
0.140982
0.103766
0.0665238
0.0319164
0.00223262
-0.0207757
-0.0359996
-0.0430038
-0.0420219
-0.033897
-0.0199868
-0.00202701
0.018029
0.0381863
0.0565734
0.0715969
0.0814573
0.0854776
0.0836279
0.0766336
0.0653925
0.0514759
0.148699
0.192732
0.233004
0.265337
0.287556
0.297657
0.295135
0.280763
0.257902
0.22888
0.196429
0.163399
0.132506
0.106095
0.0859654
0.0732519
0.0683843
0.0710853
0.0804252
0.0949133
0.11264
0.131452
0.149147
0.163671
0.173299
0.175813
0.170605
0.157911
0.138963
0.115115
0.0887363
0.149249
0.194082
0.235704
0.27004
0.294994
0.308623
0.31042
0.301111
0.283962
0.26118
0.235346
0.209138
0.185085
0.16534
0.151513
0.144551
0.144712
0.151559
0.164022
0.180489
0.198952
0.217179
0.232929
0.244141
0.249134
0.245537
0.232903
0.211752
0.183725
0.150526
0.115098
0.1288
0.167341
0.203178
0.232763
0.254392
0.266474
0.268741
0.261998
0.249219
0.232447
0.214012
0.196268
0.181377
0.171097
0.166643
0.168587
0.176847
0.190698
0.208849
0.229537
0.250675
0.270026
0.285411
0.294887
0.296944
0.289271
0.271661
0.244922
0.211011
0.171889
0.130862
0.0932
0.120217
0.144908
0.164546
0.178035
0.184352
0.183651
0.17694
0.166792
0.155092
0.143878
0.135112
0.130483
0.131232
0.138044
0.150984
0.169507
0.192501
0.218379
0.245187
0.27076
0.292889
0.309516
0.318897
0.319771
0.310041
0.289792
0.26013
0.22322
0.181212
0.137573
0.0520962
0.065561
0.0769107
0.0843369
0.0874241
0.0857917
0.0801025
0.0716323
0.0625501
0.0546148
0.0495963
0.0490634
0.0542183
0.0657581
0.0837994
0.107857
0.136883
0.169339
0.203318
0.236672
0.267165
0.292649
0.311227
0.321404
0.322213
0.311874
0.290794
0.260351
0.222814
0.180446
0.136679
0.0161241
0.0175928
0.0169977
0.0133314
0.00676713
-0.00251009
-0.0133741
-0.0242897
-0.0334075
-0.0390485
-0.0396555
-0.0339861
-0.0212553
-0.00124344
0.0256645
0.0584942
0.0957507
0.135528
0.175656
0.21384
0.247835
0.2756
0.295453
0.306181
0.307139
0.296934
0.276284
0.246778
0.210659
0.170207
0.128596
-0.00612069
-0.0121633
-0.0203444
-0.0311646
-0.0440874
-0.0585706
-0.0731842
-0.0862188
-0.096004
-0.100904
-0.0994985
-0.0907644
-0.0742035
-0.0499271
-0.0186673
0.0182695
0.059098
0.101694
0.143759
0.182984
0.217217
0.244616
0.263775
0.273807
0.274391
0.264584
0.245356
0.218398
0.185771
0.149626
0.112639
-0.010439
-0.0180456
-0.0279439
-0.0405105
-0.0551418
-0.0712151
-0.0872308
-0.101442
-0.112208
-0.117917
-0.117216
-0.10918
-0.093438
-0.0702433
-0.0404644
-0.00552028
0.0327373
0.0721808
0.110588
0.145808
0.175932
0.199432
0.215254
0.22287
0.222278
0.213035
0.196267
0.173598
0.146748
0.117555
0.0879554
0.00202168
-0.00152582
-0.00753948
-0.0166376
-0.0284319
-0.042493
-0.0574888
-0.07179
-0.0836721
-0.0915578
-0.0941059
-0.09039
-0.0800165
-0.0631905
-0.0407011
-0.013846
0.0156966
0.0460309
0.0752248
0.101478
0.123278
0.139518
0.149564
0.153264
0.15091
0.142593
0.129459
0.112896
0.0941225
0.0744814
0.0549712
0.0255745
0.0298555
0.0315388
0.0295088
0.0237435
0.0142823
0.00210392
-0.0114087
-0.0244055
-0.035372
-0.0429647
-0.0461916
-0.0445301
-0.0379935
-0.0271177
-0.0128867
0.00339538
0.0202598
0.0362426
0.0500429
0.0606587
0.0674788
0.0703128
0.069375
0.0652027
0.0584104
0.0500287
0.0410617
0.0321217
0.0239185
0.016418
0.0512657
0.0642533
0.0746058
0.0806741
0.0819695
0.078079
0.0695426
0.0574188
0.0436341
0.029589
0.0166026
0.00573377
-0.00233313
-0.00735708
-0.00953345
-0.00942934
-0.00786583
-0.00578086
-0.00408263
-0.00351028
-0.00452513
-0.00724852
-0.011462
-0.0166491
-0.0221056
-0.0267803
-0.0298595
-0.0308015
-0.0296031
-0.0262212
-0.0216275
0.07071
0.0904777
0.107765
0.120492
0.127793
0.128863
0.123837
0.113434
0.0995362
0.0833724
0.0661777
0.0490269
0.0327268
0.0177488
0.00422771
-0.00798833
-0.0192382
-0.0299371
-0.0404595
-0.0510256
-0.061622
-0.0719683
-0.0815391
-0.0896244
-0.0954531
-0.0976993
-0.0958161
-0.0896953
-0.0798529
-0.0668112
-0.0522754
0.0767892
0.0990424
0.119196
0.135048
0.145549
0.149759
0.147456
0.139072
0.126282
0.110075
0.0915138
0.0715848
0.0511087
0.0306783
0.0106513
-0.00881597
-0.0276919
-0.0459893
-0.0636807
-0.0806141
-0.0964618
-0.110709
-0.122689
-0.131648
-0.136863
-0.136959
-0.131629
-0.121158
-0.106297
-0.0879227
-0.0680423
0.067729
0.0877589
0.106279
0.121267
0.131777
0.136807
0.136166
0.130016
0.119652
0.105788
0.0892351
0.0707854
0.0511462
0.0308874
0.0104345
-0.00991181
-0.0299248
-0.0493993
-0.0680987
-0.0856983
-0.101759
-0.115725
-0.126963
-0.134819
-0.138715
-0.137475
-0.131038
-0.119655
-0.104237
-0.0856794
-0.0659157
0.0481432
0.0624653
0.0759886
0.0870963
0.0951408
0.0992803
0.0993366
0.0954381
0.0883773
0.0785912
0.0666032
0.0529465
0.0381221
0.0225625
0.00662551
-0.00939564
-0.025244
-0.0406714
-0.0554096
-0.0691405
-0.0814829
-0.0919961
-0.100212
-0.105671
-0.107995
-0.106421
-0.10088
-0.0916053
-0.0794176