# vtk DataFile Version 2.0
Func
ASCII
DATASET RECTILINEAR_GRID
DIMENSIONS 31 31 31
X_COORDINATES 31 double
-9.67742
-9.03226
-8.3871
-7.74194
-7.09677
-6.45161
-5.80645
-5.16129
-4.51613
-3.87097
-3.22581
-2.58065
-1.93548
-1.29032
-0.645161
0
0.645161
1.29032
1.93548
2.58065
3.22581
3.87097
4.51613
5.16129
5.80645
6.45161
7.09677
7.74194
8.3871
9.03226
9.67742
Y_COORDINATES 31 double
-9.67742
-9.03226
-8.3871
-7.74194
-7.09677
-6.45161
-5.80645
-5.16129
-4.51613
-3.87097
-3.22581
-2.58065
-1.93548
-1.29032
-0.645161
0
0.645161
1.29032
1.93548
2.58065
3.22581
3.87097
4.51613
5.16129
5.80645
6.45161
7.09677
7.74194
8.3871
9.03226
9.67742
Z_COORDINATES 31 double
-9.67742
-9.03226
-8.3871
-7.74194
-7.09677
-6.45161
-5.80645
-5.16129
-4.51613
-3.87097
-3.22581
-2.58065
-1.93548
-1.29032
-0.645161
0
0.645161
1.29032
1.93548
2.58065
3.22581
3.87097
4.51613
5.16129
5.80645
6.45161
7.09677
7.74194
8.3871
9.03226
9.67742
POINT_DATA 29791
SCALARS data double 1
LOOKUP_TABLE default
-0.0012854
-0.00203481
-0.00327713
-0.00492864
-0.00706069
-0.00964316
-0.0126535
-0.0160253
-0.0195893
-0.0231251
-0.0263595
-0.0289774
-0.0306447
-0.0310373
-0.0298759
-0.0269614
-0.0222068
-0.0156629
-0.0075323
0.00182555
0.0119074
0.0220949
0.0317088
0.0400645
0.0465511
0.0503884
0.0512431
0.0490005
0.0442125
0.0372493
0.0292745
-0.00385737
-0.00555665
-0.00782103
-0.0105516
-0.0138225
-0.0175693
-0.021786
-0.0264123
-0.0312686
-0.0360817
-0.0404962
-0.044085
-0.046379
-0.0469072
-0.0452477
-0.0410829
-0.0342508
-0.0247875
-0.0129541
0.000750714
0.0156065
0.0307112
0.0450596
0.0576283
0.06749
0.0734274
0.0749812
0.0719703
0.0651263
0.0550629
0.0432634
-0.00712082
-0.00982374
-0.0129787
-0.0164528
-0.0203011
-0.0244275
-0.0288681
-0.0336047
-0.0385318
-0.043407
-0.0478831
-0.051514
-0.0537826
-0.0541442
-0.0520879
-0.0472049
-0.0392565
-0.0282314
-0.0143859
0.00173282
0.0192993
0.0372555
0.054402
0.069502
0.0814188
0.0886498
0.0905764
0.0870622
0.0788911
0.0668018
0.0524984
-0.00998957
-0.0133051
-0.0167341
-0.0200966
-0.0234083
-0.0265666
-0.0296672
-0.0327878
-0.0359911
-0.0391709
-0.0421086
-0.044466
-0.0458021
-0.0456099
-0.0433763
-0.0386542
-0.0311389
-0.0207354
-0.00761088
0.00777054
0.0246506
0.042016
0.0586869
0.0734211
0.0850566
0.09204
0.0937181
0.0898922
0.0813562
0.0688286
0.0540082
-0.0112369
-0.014361
-0.0170819
-0.0191475
-0.020532
-0.02115
-0.0211882
-0.0208684
-0.020491
-0.0201808
-0.0199605
-0.0197223
-0.0192256
-0.0181168
-0.0159758
-0.0123808
-0.00698249
0.000424849
0.00984317
0.0210241
0.033456
0.0463859
0.0588879
0.0699482
0.0785901
0.0834614
0.0839751
0.0799364
0.0719836
0.0606993
0.0475163
-0.0100693
-0.0120314
-0.0129769
-0.0125804
-0.0107888
-0.00756839
-0.00321263
0.00188319
0.0071565
0.0121957
0.0166678
0.0203702
0.0232572
0.0254446
0.0271851
0.0288211
0.0307214
0.0332142
0.0365233
0.040712
0.0456516
0.0510177
0.0563247
0.0609781
0.0643599
0.0655326
0.0640736
0.0598159
0.0531402
0.0443951
0.0345324
-0.0067261
-0.00678527
-0.00523248
-0.00168259
0.00392524
0.011548
0.0207903
0.0310847
0.0416297
0.051723
0.0607073
0.0680443
0.0733663
0.076508
0.0775094
0.0765931
0.0741192
0.0705302
0.0662885
0.0618144
0.0574368
0.0533603
0.0496571
0.0462754
0.0430724
0.0396775
0.0359036
0.0316329
0.0269123
0.0217964
0.016534
-0.00243558
-0.000437652
0.00361577
0.0101526
0.0192281
0.0307214
0.0441655
0.0588629
0.0738405
0.0881592
0.100886
0.111184
0.118386
0.122052
0.121998
0.118305
0.111296
0.101496
0.0895804
0.0763095
0.0624672
0.0487996
0.0359619
0.0244813
0.014728
0.0069668
0.00127722
-0.00240024
-0.00439219
-0.00496146
-0.00467517
0.000991289
0.00442926
0.0101134
0.0184932
0.0296215
0.0433287
0.0591331
0.0762855
0.0937382
0.110416
0.12521
0.137072
0.145105
0.148639
0.147288
0.140984
0.12998
0.114836
0.0963738
0.0756257
0.0537585
0.0319936
0.0115129
-0.00662293
-0.0215629
-0.0324141
-0.0388389
-0.0408441
-0.0391392
-0.0342983
-0.0277365
0.00202673
0.00566745
0.0114362
0.0197791
0.0307661
0.044232
0.059753
0.0766317
0.0938562
0.110347
0.124948
0.136525
0.144051
0.146705
0.143938
0.135541
0.121669
0.102851
0.0799693
0.054214
0.0270115
-6.98461e-05
-0.0254451
-0.0476306
-0.0653873
-0.0772661
-0.0827169
-0.0817068
-0.0753098
-0.0643785
-0.0511218
0.00021334
0.00264642
0.00678348
0.0130358
0.0215151
0.0321198
0.0445576
0.0582893
0.0724494
0.0860903
0.098152
0.107544
0.11323
0.114323
0.110171
0.100436
0.0851527
0.0647562
0.0400859
0.0123603
-0.0168862
-0.0459009
-0.0728578
-0.0960007
-0.113829
-0.124459
-0.127191
-0.121969
-0.110184
-0.0929135
-0.0730295
-0.00347479
-0.00326074
-0.00201583
0.00059423
0.00473621
0.0104153
0.0175267
0.0257763
0.0345463
0.0431415
0.0507253
0.0563764
0.0591593
0.058211
0.0528341
0.0425892
0.0273707
0.00746507
-0.0164249
-0.0431787
-0.0713062
-0.0990374
-0.124474
-0.145749
-0.161236
-0.16876
-0.167541
-0.157511
-0.140302
-0.117138
-0.0913783
-0.00689661
-0.00905465
-0.0110112
-0.0125655
-0.0135072
-0.013717
-0.0130869
-0.0116148
-0.00958547
-0.00735337
-0.00543349
-0.00447827
-0.00522927
-0.00844572
-0.0148139
-0.0248478
-0.0387955
-0.0565593
-0.0776451
-0.101135
-0.125711
-0.149734
-0.171384
-0.188824
-0.200427
-0.203884
-0.198383
-0.183844
-0.16204
-0.134258
-0.10413
-0.00754718
-0.0112246
-0.0155826
-0.0206236
-0.0261353
-0.0319188
-0.0376633
-0.0430609
-0.0479982
-0.0524397
-0.0565178
-0.0605486
-0.0650118
-0.0705004
-0.0776399
-0.0869872
-0.0989238
-0.113557
-0.130646
-0.149542
-0.169196
-0.188203
-0.204939
-0.217709
-0.22498
-0.224447
-0.215304
-0.197446
-0.172676
-0.142249
-0.109865
-0.00355304
-0.00712208
-0.0122162
-0.0191166
-0.0276712
-0.0376714
-0.0486421
-0.0599962
-0.0711802
-0.0817572
-0.0914535
-0.100214
-0.108217
-0.115845
-0.123623
-0.132118
-0.141824
-0.153048
-0.165813
-0.179775
-0.194197
-0.207978
-0.219758
-0.228057
-0.231497
-0.227895
-0.216462
-0.19705
-0.171388
-0.140612
-0.108307
0.00555517
0.00397789
0.000130532
-0.00661275
-0.0162274
-0.0285777
-0.0430785
-0.058912
-0.0750697
-0.0907334
-0.105231
-0.118134
-0.129302
-0.138886
-0.147283
-0.155038
-0.16273
-0.170843
-0.179649
-0.189105
-0.198799
-0.207951
-0.215497
-0.220203
-0.220874
-0.215529
-0.203399
-0.184276
-0.159728
-0.13071
-0.100557
0.0185966
0.0205424
0.0196036
0.0147719
0.00589451
-0.00703695
-0.0233801
-0.042141
-0.061873
-0.0814189
-0.0997423
-0.116064
-0.129936
-0.141278
-0.150342
-0.157632
-0.163781
-0.169417
-0.175028
-0.180843
-0.186752
-0.192281
-0.196655
-0.198886
-0.197962
-0.192136
-0.180662
-0.163263
-0.141289
-0.115491
-0.0888699
0.0330777
0.0392467
0.0420554
0.0401213
0.0330985
0.0207977
0.00387981
-0.0165342
-0.0386105
-0.0609111
-0.0820908
-0.101067
-0.117122
-0.129963
-0.139706
-0.146802
-0.151917
-0.155786
-0.159072
-0.162228
-0.165401
-0.168381
-0.170643
-0.171414
-0.169847
-0.16442
-0.154404
-0.139458
-0.120702
-0.0986838
-0.0760638
0.0459284
0.0559826
0.0623378
0.063305
0.0583695
0.0471717
0.0303725
0.00918092
-0.0142674
-0.0383246
-0.0614121
-0.0822155
-0.099809
-0.113735
-0.124001
-0.131015
-0.135461
-0.138153
-0.139884
-0.141274
-0.142664
-0.144044
-0.145079
-0.14516
-0.143562
-0.138941
-0.130582
-0.118089
-0.102373
-0.0838215
-0.064794
0.0543244
0.0669764
0.0757283
0.0787113
0.0753046
0.0650353
0.0485652
0.0271594
0.00313981
-0.0217189
-0.0456985
-0.0673478
-0.0856202
-0.0999655
-0.110335
-0.117119
-0.121023
-0.122917
-0.123679
-0.124038
-0.124451
-0.125031
-0.125553
-0.125503
-0.12422
-0.12046
-0.113511
-0.102936
-0.0894901
-0.0734539
-0.0569792
0.0563122
0.0696293
0.0789895
0.0825188
0.0795785
0.0696752
0.0534853
0.0322994
0.00848803
-0.0161414
-0.0398409
-0.0611371
-0.0789709
-0.0927927
-0.102567
-0.108711
-0.111964
-0.113238
-0.113455
-0.113386
-0.113527
-0.114021
-0.114666
-0.114954
-0.114221
-0.111232
-0.105253
-0.0958169
-0.0835944
-0.068818
-0.053555
0.051114
0.0629138
0.0708546
0.0732533
0.0695526
0.0593489
0.0433497
0.0228382
8.57214e-05
-0.0231682
-0.0452654
-0.0648345
-0.0809241
-0.0930884
-0.101386
-0.106309
-0.108652
-0.109358
-0.109354
-0.109389
-0.109915
-0.111013
-0.112403
-0.113502
-0.113564
-0.111267
-0.105829
-0.0967587
-0.084713
-0.0699374
-0.0545402
0.0391362
0.0473674
0.0519958
0.0517157
0.0461434
0.0350734
0.0192561
-6.9928e-05
-0.0208741
-0.0415837
-0.0607466
-0.0772143
-0.0902576
-0.0996336
-0.105569
-0.10868
-0.109833
-0.109991
-0.110046
-0.110667
-0.112182
-0.114525
-0.117254
-0.119622
-0.12074
-0.119115
-0.113885
-0.104543
-0.0917969
-0.0759559
-0.0592764
0.0218351
0.0249009
0.0247663
0.0206438
0.0123961
9.91841e-05
-0.0154502
-0.0330959
-0.0511668
-0.0683419
-0.0834713
-0.0957277
-0.104695
-0.110408
-0.113316
-0.11419
-0.113976
-0.113639
-0.114001
-0.115598
-0.118576
-0.122651
-0.127156
-0.131124
-0.133477
-0.132495
-0.127225
-0.117143
-0.103064
-0.0854006
-0.0666188
0.00153874
-0.0014437
-0.00711152
-0.0156659
-0.0269594
-0.0405902
-0.0557265
-0.0713266
-0.0861566
-0.0992047
-0.109684
-0.117145
-0.121533
-0.123194
-0.122821
-0.121339
-0.119765
-0.119042
-0.119893
-0.122683
-0.127342
-0.133337
-0.139748
-0.145372
-0.14893
-0.14847
-0.142949
-0.131843
-0.116097
-0.0962534
-0.07499
-0.0188816
-0.0279128
-0.0390584
-0.0519478
-0.0661522
-0.0809509
-0.0954993
-0.108893
-0.120361
-0.12922
-0.135058
-0.137809
-0.137771
-0.135589
-0.132172
-0.128574
-0.125847
-0.124887
-0.126295
-0.130255
-0.136476
-0.14419
-0.152245
-0.159232
-0.163705
-0.163523
-0.157588
-0.145387
-0.128001
-0.106099
-0.0825166
-0.0359638
-0.0499932
-0.0655517
-0.0818253
-0.0981557
-0.113572
-0.127253
-0.138446
-0.146806
-0.151955
-0.153818
-0.152651
-0.149042
-0.143858
-0.138153
-0.133042
-0.129562
-0.128528
-0.130406
-0.135215
-0.142485
-0.151275
-0.160281
-0.167973
-0.172822
-0.172612
-0.166244
-0.153242
-0.134781
-0.111627
-0.0866117
-0.0467639
-0.0637568
-0.0817866
-0.0997412
-0.116831
-0.13195
-0.14435
-0.153432
-0.159188
-0.161487
-0.160501
-0.156709
-0.150868
-0.143952
-0.137052
-0.131254
-0.127517
-0.126539
-0.128656
-0.133763
-0.141286
-0.150213
-0.15921
-0.166757
-0.171363
-0.17089
-0.164317
-0.151223
-0.1328
-0.109848
-0.0850714
-0.0488261
-0.06592
-0.0836865
-0.100924
-0.116833
-0.130359
-0.140845
-0.147855
-0.151588
-0.152074
-0.149615
-0.144768
-0.138315
-0.131187
-0.124377
-0.11884
-0.115381
-0.114552
-0.116576
-0.121279
-0.128086
-0.136051
-0.143963
-0.150471
-0.15427
-0.153489
-0.147257
-0.13527
-0.118594
-0.0979829
-0.0758453
-0.0419246
-0.0563281
-0.0711627
-0.0853333
-0.0981803
-0.108778
-0.116709
-0.121658
-0.12389
-0.123504
-0.120815
-0.116326
-0.110699
-0.104688
-0.0990781
-0.0945986
-0.0918481
-0.0912187
-0.0928387
-0.0965334
-0.101822
-0.107946
-0.113956
-0.118803
-0.12149
-0.120588
-0.115479
-0.105848
-0.0926174
-0.0763769
-0.0590883
-0.0291234
-0.0389751
-0.0491427
-0.0587322
-0.0673389
-0.0743013
-0.0793642
-0.0823818
-0.0835597
-0.0829981
-0.0809369
-0.0777342
-0.0738413
-0.0697612
-0.0660027
-0.0630311
-0.0612189
-0.0608006
-0.0618385
-0.0642012
-0.0675632
-0.0714254
-0.0751715
-0.0781277
-0.0796603
-0.0788865
-0.0753725
-0.0689195
-0.0601855
-0.0494872
-0.0383225
-0.00417204
-0.00605464
-0.00866308
-0.0118597
-0.0157369
-0.0202277
-0.0253164
-0.0309265
-0.0368431
-0.0427498
-0.048241
-0.0528345
-0.0560049
-0.0572278
-0.0560349
-0.0520738
-0.0451616
-0.0353309
-0.0228566
-0.00826952
0.00766204
0.0239752
0.0395963
0.0534302
0.0644833
0.0714723
0.0738895
0.071529
0.0651284
0.0553036
0.0436186
-0.0090116
-0.0126241
-0.0170662
-0.0221668
-0.0280122
-0.0344841
-0.041597
-0.0492919
-0.0573632
-0.0654274
-0.0729634
-0.079324
-0.0837776
-0.0855684
-0.0839976
-0.0785132
-0.0687958
-0.0548319
-0.0369626
-0.0159115
0.00723716
0.0310986
0.054106
0.0746443
0.0912276
0.101872
0.105915
0.103052
0.0941931
0.0802788
0.0633574
-0.0145319
-0.0198449
-0.0258267
-0.0322452
-0.0391572
-0.0464127
-0.054087
-0.062186
-0.0706358
-0.0791051
-0.0870878
-0.0939049
-0.0987439
-0.100724
-0.0989941
-0.092842
-0.0818092
-0.0657879
-0.0450921
-0.0205033
0.00674531
0.0350373
0.0625091
0.0872143
0.107335
0.120437
0.125612
0.122622
0.112388
0.09602
0.0758895
-0.0188242
-0.0250648
-0.0314896
-0.0377969
-0.0439952
-0.049947
-0.0558183
-0.0617527
-0.0679357
-0.0742372
-0.0803368
-0.085705
-0.0896273
-0.0912599
-0.0897257
-0.0842335
-0.0742035
-0.0593839
-0.0399404
-0.0165209
0.00974516
0.0373051
0.0643155
0.0888074
0.108908
0.122093
0.127387
0.124425
0.114129
0.0975716
0.0771236
-0.0199546
-0.0256957
-0.0308758
-0.0351097
-0.0383599
-0.0405427
-0.041962
-0.0429682
-0.0440935
-0.0455431
-0.0473419
-0.0492866
-0.0509418
-0.0516716
-0.0507177
-0.0473072
-0.0407779
-0.0306995
-0.0169768
6.88521e-05
0.0196763
0.0406765
0.061597
0.0807994
0.0966749
0.107001
0.110869
0.107901
0.0987896
0.0843857
0.0666788
-0.0167743
-0.0203502
-0.0224785
-0.0227091
-0.0209844
-0.017325
-0.0121993
-0.00620735
-0.000248569
0.00506145
0.00925626
0.0120985
0.013619
0.0141189
0.0141235
0.0142997
0.0153474
0.0178837
0.0223352
0.0288431
0.0372123
0.0469066
0.0571026
0.066779
0.0748559
0.0797442
0.0807408
0.0774932
0.0703439
0.0597764
0.0470931
-0.00981246
-0.00994912
-0.00777067
-0.00279934
0.00501263
0.0155095
0.0280617
0.0418203
0.0555667
0.0682723
0.0790101
0.0870637
0.0920025
0.0937221
0.0924382
0.0886412
0.0830155
0.0763426
0.0693972
0.0628454
0.0571676
0.0526113
0.0491828
0.0466709
0.0447083
0.0425809
0.0398991
0.0363763
0.0319157
0.0265427
0.0205847
-0.00122069
0.00238917
0.00896534
0.0189848
0.0324681
0.0491302
0.0682255
0.0887178
0.109176
0.128238
0.144588
0.15708
0.164847
0.167379
0.164556
0.156646
0.144263
0.128297
0.109823
0.0900024
0.0699876
0.0508302
0.033411
0.0183914
0.00618528
-0.00293255
-0.00898685
-0.0121726
-0.013067
-0.0121363
-0.0101715
0.00592586
0.0123304
0.0219857
0.03535
0.0524274
0.0728534
0.0958553
0.120328
0.144768
0.16763
0.187346
0.202464
0.211776
0.214418
0.209951
0.198398
0.180243
0.156402
0.128148
0.0970314
0.0647695
0.0331254
0.00377726
-0.0217972
-0.04244
-0.0568863
-0.0648004
-0.0662836
-0.0623945
-0.0540781
-0.0432776
0.00896757
0.016177
0.0264693
0.0402788
0.0576292
0.0781614
0.101193
0.125704
0.150277
0.173366
0.193339
0.208607
0.217756
0.219671
0.213639
0.199437
0.177366
0.148263
0.113464
0.0747428
0.0341984
-0.00587834
-0.0431865
-0.0755868
-0.101302
-0.118176
-0.12557
-0.123501
-0.113478
-0.0968711
-0.0766964
0.0069222
0.012596
0.0207349
0.0317457
0.045717
0.0623902
0.0812928
0.101652
0.122279
0.141825
0.158791
0.171634
0.178893
0.179316
0.17199
0.156455
0.132787
0.101646
0.0642766
0.0224829
-0.0214715
-0.0650031
-0.10542
-0.140133
-0.166928
-0.182926
-0.187267
-0.179909
-0.162738
-0.137469
-0.108012
0.00108209
0.00342062
0.00724019
0.0129034
0.0205933
0.0302258
0.0416308
0.054409
0.0677346
0.0806232
0.0918824
0.100186
0.104176
0.102585
0.0943765
0.0788808
0.055918
0.0258857
-0.0101969
-0.0506805
-0.0933565
-0.135588
-0.174535
-0.20739
-0.231692
-0.244055
-0.243485
-0.22989
-0.205438
-0.172074
-0.134358
-0.00535289
-0.00687598
-0.00812964
-0.00883984
-0.00873733
-0.00770474
-0.00556799
-0.00228362
0.00179443
0.00616641
0.0100801
0.0125603
0.0124786
0.00865854
1.46347e-05
-0.0142921
-0.0347053
-0.0611451
-0.0929234
-0.128693
-0.166485
-0.203819
-0.237922
-0.265975
-0.285452
-0.292687
-0.286617
-0.267094
-0.236447
-0.196718
-0.152836
-0.00848057
-0.0128509
-0.0182354
-0.0245265
-0.0314224
-0.038636
-0.0456653
-0.0520228
-0.057505
-0.062064
-0.0659321
-0.0696435
-0.0740049
-0.0800159
-0.0887391
-0.101138
-0.117903
-0.139292
-0.165008
-0.194101
-0.224972
-0.255453
-0.283004
-0.304956
-0.318855
-0.320977
-0.310221
-0.286367
-0.251766
-0.208422
-0.161347
-0.00521657
-0.0101837
-0.0173853
-0.0269834
-0.0387324
-0.0522571
-0.0667929
-0.0814629
-0.0954488
-0.108146
-0.119237
-0.128771
-0.137176
-0.145211
-0.153856
-0.164146
-0.176984
-0.19295
-0.212149
-0.23407
-0.257555
-0.280835
-0.301712
-0.317773
-0.32673
-0.324984
-0.311405
-0.285672
-0.250032
-0.206319
-0.159382
0.00550247
0.00267673
-0.00344901
-0.0134122
-0.0271221
-0.0442223
-0.0637764
-0.0846049
-0.105251
-0.124586
-0.141757
-0.156323
-0.168308
-0.178196
-0.186833
-0.195275
-0.204587
-0.215634
-0.228891
-0.244283
-0.2611
-0.278012
-0.293203
-0.30457
-0.310043
-0.306274
-0.292106
-0.267093
-0.233266
-0.192205
-0.148397
0.0222959
0.0239413
0.0214192
0.0137395
0.000760626
-0.01728
-0.0393633
-0.0640972
-0.0894055
-0.113696
-0.135629
-0.154299
-0.169337
-0.180939
-0.189788
-0.19692
-0.203508
-0.210643
-0.219124
-0.229261
-0.240766
-0.252725
-0.263705
-0.271918
-0.275525
-0.271494
-0.25864
-0.236383
-0.206472
-0.170183
-0.131537
0.0417883
0.0491041
0.0515912
0.0477887
0.0372913
0.020155
-0.00258406
-0.0293954
-0.0576501
-0.0853737
-0.110811
-0.132654
-0.150182
-0.163318
-0.172583
-0.178963
-0.183697
-0.188046
-0.193064
-0.199381
-0.207066
-0.215568
-0.22379
-0.230233
-0.233263
-0.230168
-0.219741
-0.201277
-0.176222
-0.145556
-0.112805
0.0596585
0.07238
0.079811
0.0800831
0.0725539
0.0570911
0.0347169
0.00704938
-0.0228463
-0.0527095
-0.0804682
-0.104503
-0.123815
-0.138111
-0.147775
-0.153742
-0.157291
-0.159803
-0.162518
-0.166306
-0.17151
-0.177854
-0.184506
-0.190187
-0.193427
-0.191776
-0.18401
-0.169323
-0.148884
-0.123425
-0.0960407
0.0718251
0.0883164
0.0992515
0.102503
0.0972743
0.0832964
0.0615787
0.0337948
0.0032837
-0.027519
-0.0563485
-0.0813968
-0.101497
-0.11623
-0.125901
-0.131424
-0.134111
-0.135423
-0.136723
-0.139037
-0.142874
-0.148134
-0.154144
-0.159758
-0.163598
-0.163371
-0.157839
-0.146126
-0.129185
-0.107578
-0.0840951
0.0753544
0.0930123
0.105052
0.109306
0.104946
0.0916666
0.0704876
0.0431127
0.0129579
-0.017493
-0.0459295
-0.0705054
-0.0900298
-0.104075
-0.112958
-0.117624
-0.119427
-0.119883
-0.120419
-0.122121
-0.125558
-0.130684
-0.13686
-0.142965
-0.147622
-0.148568
-0.144534
-0.134604
-0.1196
-0.100005
-0.0784753
0.0689156
0.0847101
0.0950403
0.0979577
0.0927388
0.0791734
0.0583196
0.0318838
0.00314499
-0.0255025
-0.0518636
-0.0742227
-0.0915243
-0.103471
-0.110495
-0.113634
-0.114308
-0.11407
-0.114348
-0.1162
-0.120139
-0.12604
-0.133175
-0.140323
-0.146014
-0.147872
-0.144577
-0.135194
-0.120508
-0.101015
-0.0794166
0.0528233
0.0638268
0.0697402
0.0690835
0.0613755
0.0466299
0.0259675
0.00106239
-0.0251518
-0.0505067
-0.0730828
-0.0914599
-0.104874
-0.113291
-0.117359
-0.11827
-0.117527
-0.1167
-0.117161
-0.119853
-0.125123
-0.132647
-0.141482
-0.150199
-0.157144
-0.159708
-0.156494
-0.146561
-0.130753
-0.109658
-0.0861866
0.0289035
0.0327549
0.0320924
0.0261002
0.0146474
-0.0019241
-0.0224189
-0.0452356
-0.0679625
-0.0887761
-0.106167
-0.119145
-0.127365
-0.131156
-0.131457
-0.129649
-0.127328
-0.126049
-0.127077
-0.131162
-0.138397
-0.148163
-0.159215
-0.169835
-0.178123
-0.181158
-0.177452
-0.166078
-0.148016
-0.124012
-0.0972855
0.000299403
-0.00440132
-0.0128868
-0.0252071
-0.0410825
-0.0597852
-0.0800559
-0.100403
-0.119056
-0.134618
-0.146074
-0.152946
-0.155371
-0.154092
-0.150357
-0.145742
-0.141912
-0.140374
-0.142236
-0.148005
-0.157465
-0.16966
-0.183003
-0.195465
-0.204889
-0.208028
-0.203317
-0.189868
-0.168844
-0.141191
-0.110458
-0.0289271
-0.0423331
-0.0587204
-0.0773841
-0.0976354
-0.118367
-0.138284
-0.156037
-0.170538
-0.180845
-0.186458
-0.187416
-0.18433
-0.178331
-0.170946
-0.163896
-0.158873
-0.15729
-0.160066
-0.167445
-0.178901
-0.193155
-0.208311
-0.222074
-0.23208
-0.234823
-0.228707
-0.212911
-0.18879
-0.157493
-0.122835
-0.053696
-0.0743979
-0.0972703
-0.121014
-0.144606
-0.166644
-0.185853
-0.201053
-0.211788
-0.21754
-0.218265
-0.214444
-0.207063
-0.19754
-0.187569
-0.178927
-0.173252
-0.171815
-0.175332
-0.183801
-0.19645
-0.211765
-0.22766
-0.241701
-0.251439
-0.253277
-0.245667
-0.227887
-0.201436
-0.167616
-0.130304
-0.0696633
-0.0948266
-0.121469
-0.147905
-0.172919
-0.194954
-0.212832
-0.225562
-0.233188
-0.235532
-0.232893
-0.22604
-0.216179
-0.204846
-0.193755
-0.18461
-0.178906
-0.177727
-0.181588
-0.190307
-0.202967
-0.217975
-0.233227
-0.246332
-0.254935
-0.255579
-0.24686
-0.228169
-0.201059
-0.166882
-0.129386
-0.0729039
-0.0983867
-0.124811
-0.150411
-0.173964
-0.194016
-0.209512
-0.219682
-0.224878
-0.225146
-0.220953
-0.213165
-0.202992
-0.191881
-0.181377
-0.172961
-0.167882
-0.166999
-0.170648
-0.178554
-0.189809
-0.202932
-0.216029
-0.226986
-0.233751
-0.233299
-0.224448
-0.206802
-0.181746
-0.150549
-0.116548
-0.0630528
-0.084753
-0.107035
-0.128329
-0.147614
-0.163603
-0.175612
-0.183057
-0.186374
-0.185709
-0.181536
-0.174629
-0.166003
-0.156829
-0.148325
-0.141626
-0.137663
-0.137047
-0.139976
-0.146173
-0.154882
-0.164913
-0.174776
-0.182826
-0.18749
-0.186439
-0.178856
-0.164298
-0.144014
-0.119014
-0.0919932
-0.0443985
-0.0594939
-0.0749956
-0.0896745
-0.102862
-0.113605
-0.12148
-0.126202
-0.128098
-0.127312
-0.124206
-0.119332
-0.113389
-0.107165
-0.101459
-0.0970048
-0.0943924
-0.0939938
-0.095909
-0.0999294
-0.105537
-0.111939
-0.118152
-0.123105
-0.12578
-0.124725
-0.119326
-0.109288
-0.0955586
-0.07875
-0.0608632
-0.00879886
-0.0123414
-0.0168055
-0.0219537
-0.0278906
-0.034503
-0.0417959
-0.0497028
-0.0580171
-0.0663639
-0.0742407
-0.0810287
-0.0860321
-0.0885347
-0.0878748
-0.0835279
-0.0751856
-0.0628217
-0.0467376
-0.027585
-0.00634918
0.015708
0.0371553
0.0565139
0.0724198
0.0831409
0.0879007
0.0864682
0.0796592
0.0682446
0.0541537
-0.0166602
-0.0229522
-0.0302972
-0.0383885
-0.0473148
-0.0569018
-0.0671972
-0.0781669
-0.0896566
-0.101222
-0.112221
-0.121826
-0.129064
-0.132902
-0.132351
-0.126592
-0.115103
-0.0977582
-0.0749123
-0.047442
-0.0167272
0.015426
0.0469374
0.0756341
0.0994839
0.115829
0.123626
0.122533
0.113508
0.0977134
0.0776821
-0.0249083
-0.0337684
-0.0434999
-0.0537014
-0.0644243
-0.0754704
-0.0869547
-0.0989425
-0.111473
-0.124174
-0.136423
-0.147339
-0.155828
-0.160665
-0.160628
-0.154655
-0.142001
-0.122383
-0.0960919
-0.0640579
-0.0278466
0.010432
0.0482974
0.0831209
0.112408
0.132893
0.143158
0.142931
0.133129
0.115121
0.0918189
-0.0306088
-0.0407559
-0.0512036
-0.0614696
-0.0715544
-0.0812931
-0.0909171
-0.100677
-0.110944
-0.121597
-0.132235
-0.142147
-0.150331
-0.155574
-0.156583
-0.152151
-0.141341
-0.123655
-0.09917
-0.0686338
-0.0334782
0.00425745
0.0420965
0.0773515
0.107421
0.128902
0.140241
0.140975
0.131981
0.114549
0.0915919
-0.0309828
-0.0402008
-0.0488321
-0.0563282
-0.0626553
-0.0677493
-0.0720145
-0.0759682
-0.0803998
-0.0855932
-0.0915587
-0.0979637
-0.104125
-0.109053
-0.111568
-0.110453
-0.104636
-0.0933712
-0.0763905
-0.054023
-0.0272371
0.00240216
0.0328696
0.0618724
0.0871169
0.105565
0.115728
0.117074
0.11018
0.0960345
0.0770587
-0.0245828
-0.0303476
-0.0344659
-0.0363734
-0.0360481
-0.0335961
-0.0296338
-0.0249949
-0.0208851
-0.0180773
-0.0171035
-0.0181486
-0.0210013
-0.0250606
-0.0294101
-0.0329427
-0.0345243
-0.0331636
-0.0281713
-0.0192961
-0.00679904
0.0085424
0.02551
0.0425762
0.0581018
0.0698404
0.0765718
0.0777366
0.0734917
0.0643494
0.0518619
-0.0123372
-0.012694
-0.0103588
-0.00481892
0.00389042
0.015453
0.0290396
0.0435066
0.0573116
0.069196
0.0780857
0.0832298
0.0842903
0.0813813
0.0750444
0.0661697
0.0558702
0.0453365
0.0356856
0.0278186
0.0223163
0.0193818
0.0188405
0.0201876
0.0226884
0.0252029
0.0269482
0.027393
0.0261915
0.0232789
0.0190011
0.0024368
0.00804201
0.0171284
0.0301186
0.0468986
0.0669551
0.0893025
0.112569
0.135018
0.155008
0.171009
0.181758
0.186391
0.184517
0.176252
0.162193
0.143341
0.120998
0.0966359
0.0717606
0.0477852
0.0259238
0.00711045
-0.00804399
-0.0192652
-0.026433
-0.0297996
-0.0298267
-0.0273866
-0.0231482
-0.018134
0.015092
0.0253896
0.0395163
0.0577996
0.0800717
0.105697
0.133651
0.162486
0.190447
0.215687
0.236386
0.250911
0.257966
0.256708
0.246822
0.228561
0.202723
0.170598
0.133874
0.094518
0.0546447
0.0163667
-0.0183584
-0.0478597
-0.0708825
-0.0860324
-0.0930133
-0.0922019
-0.0849775
-0.0725858
-0.0574471
0.0214927
0.0336619
0.0494621
0.0691562
0.0925893
0.119128
0.147868
0.177486
0.206381
0.232727
0.254627
0.27027
0.278081
0.276859
0.2659
0.245084
0.214922
0.176553
0.131697
0.0825765
0.0317802
-0.0179028
-0.0636977
-0.103052
-0.133872
-0.153595
-0.161435
-0.157683
-0.144175
-0.122663
-0.0968618
0.0198091
0.0304025
0.0438875
0.0605096
0.0802121
0.102506
0.126771
0.152009
0.176929
0.199952
0.219331
0.23328
0.240114
0.238399
0.227104
0.205738
0.174452
0.1341
0.0862466
0.0331266
-0.0224618
-0.0773353
-0.128178
-0.171809
-0.205502
-0.225728
-0.231308
-0.22246
-0.201394
-0.170263
-0.133864
0.0114081
0.0175755
0.0254614
0.035331
0.0472907
0.0611143
0.0765924
0.0932098
0.110116
0.126165
0.139956
0.149913
0.154404
0.151887
0.141081
0.121142
0.0918203
0.0535764
0.00764729
-0.0439375
-0.0984347
-0.152553
-0.202725
-0.245412
-0.277491
-0.294716
-0.295623
-0.280361
-0.251404
-0.211173
-0.165259
0.000428886
0.000952459
0.00176547
0.00314848
0.00538516
0.00857246
0.0129632
0.0186099
0.0252011
0.0321546
0.0385536
0.0431757
0.0445759
0.0412172
0.0316513
0.014722
-0.0102346
-0.0432152
-0.0834308
-0.129232
-0.178147
-0.227024
-0.272302
-0.310331
-0.337808
-0.350041
-0.345376
-0.323867
-0.288128
-0.24069
-0.187606
-0.00779172
-0.012065
-0.0175382
-0.0239755
-0.030968
-0.0381114
-0.0447223
-0.0501828
-0.0541906
-0.0567056
-0.0580823
-0.0590986
-0.0609149
-0.0649667
-0.0727884
-0.0857914
-0.105028
-0.13097
-0.163337
-0.200966
-0.241806
-0.283024
-0.321263
-0.35296
-0.374799
-0.381911
-0.372508
-0.346511
-0.306531
-0.255047
-0.198237
-0.00875143
-0.0152342
-0.0243007
-0.0358716
-0.0495189
-0.0646168
-0.080152
-0.0950149
-0.108239
-0.119166
-0.127566
-0.133729
-0.138467
-0.143041
-0.148992
-0.157916
-0.171198
-0.189755
-0.213816
-0.242744
-0.274984
-0.308131
-0.339155
-0.364714
-0.3816
-0.384995
-0.373007
-0.345378
-0.304578
-0.252885
-0.196302
-0.000425848
-0.00571168
-0.0147542
-0.0277678
-0.0444343
-0.0640334
-0.0853582
-0.10692
-0.127067
-0.144571
-0.158641
-0.169072
-0.176297
-0.181347
-0.1857
-0.191059
-0.199069
-0.211025
-0.227621
-0.248727
-0.273298
-0.29939
-0.324367
-0.345181
-0.3588
-0.36063
-0.348696
-0.322517
-0.284313
-0.236047
-0.183313
0.0160953
0.015094
0.00941378
-0.00157509
-0.0177753
-0.0385025
-0.0624874
-0.0879781
-0.112657
-0.134798
-0.153101
-0.166894
-0.176225
-0.181863
-0.185173
-0.187892
-0.191841
-0.198615
-0.209296
-0.224206
-0.242767
-0.263489
-0.284133
-0.301968
-0.314172
-0.316475
-0.306834
-0.284534
-0.251473
-0.209242
-0.162878
0.0371047
0.0422185
0.0419748
0.0352659
0.0219092
0.00245558
-0.0218561
-0.0491058
-0.0763744
-0.101529
-0.122834
-0.139201
-0.150323
-0.156707
-0.159572
-0.16064
-0.161836
-0.164973
-0.171435
-0.181912
-0.196226
-0.213288
-0.231221
-0.247591
-0.259787
-0.263885
-0.257801
-0.240604
-0.213841
-0.17874
-0.139735
0.0575511
0.068889
0.0744106
0.0725589
0.0628815
0.0457568
0.0223534
-0.00530513
-0.0338163
-0.0607403
-0.0840044
-0.102187
-0.114689
-0.121792
-0.124577
-0.124727
-0.124224
-0.125023
-0.12873
-0.13631
-0.147895
-0.162707
-0.179167
-0.195085
-0.208025
-0.214368
-0.212011
-0.19985
-0.179108
-0.150701
-0.11852
0.0724901
0.0884979
0.0984336
0.100424
0.0938268
0.0788721
0.0566708
0.0293073
0.000498444
-0.0271245
-0.0512746
-0.070318
-0.0834673
-0.0908567
-0.0934774
-0.0929844
-0.0913947
-0.0907554
-0.0928126
-0.0987094
-0.108778
-0.122448
-0.138331
-0.1544
-0.168331
-0.176707
-0.177419
-0.169249
-0.153157
-0.129841
-0.10279
0.0781873
0.0960821
0.107855
0.111542
0.106438
0.0927129
0.0714635
0.0448021
0.0165478
-0.0106096
-0.0343211
-0.0528959
-0.0655008
-0.0722427
-0.0741064
-0.0727633
-0.0702668
-0.0687189
-0.0699334
-0.0751298
-0.0847189
-0.0982074
-0.11427
-0.130928
-0.145881
-0.155779
-0.158494
-0.152754
-0.139349
-0.11887
-0.0945986
0.0726736
0.0890428
0.0994599
0.102153
0.0965127
0.0827654
0.0620567
0.0364885
0.00974494
-0.0155738
-0.0372309
-0.053658
-0.0641465
-0.0689201
-0.0690647
-0.0663305
-0.0628243
-0.0606735
-0.0616897
-0.067063
-0.0771533
-0.0913993
-0.108398
-0.126088
-0.142092
-0.152965
-0.156543
-0.151548
-0.138708
-0.118619
-0.0945826
0.0558283
0.0672214
0.0730616
0.072055
0.0638453
0.0488501
0.0283155
0.00428824
-0.0199207
-0.041953
-0.0598607
-0.0723814
-0.0791028
-0.0805109
-0.0779004
-0.0731622
-0.0684727
-0.0659552
-0.0673488
-0.0737107
-0.085221
-0.101111
-0.119761
-0.138902
-0.155977
-0.167308
-0.170666
-0.164808
-0.150515
-0.128495
-0.102274
0.0293078
0.0327807
0.0313128
0.0243231
0.0118399
-0.00541588
-0.0260606
-0.048153
-0.0689643
-0.0865131
-0.0992942
-0.106505
-0.108172
-0.105156
-0.0990418
-0.0918993
-0.0859743
-0.0833493
-0.0856223
-0.0936249
-0.10725
-0.125409
-0.146158
-0.16693
-0.184921
-0.196117
-0.198214
-0.190047
-0.172553
-0.146645
-0.116218
-0.003552
-0.00993364
-0.0204806
-0.0349303
-0.0527898
-0.0729657
-0.0939343
-0.113903
-0.130872
-0.143335
-0.150326
-0.151599
-0.147692
-0.139898
-0.130114
-0.120586
-0.113602
-0.111157
-0.114645
-0.124608
-0.140586
-0.161113
-0.183875
-0.20598
-0.224365
-0.234657
-0.234505
-0.222862
-0.200892
-0.169778
-0.133833
-0.0380773
-0.0548167
-0.0748662
-0.0971185
-0.120607
-0.143864
-0.165253
-0.183165
-0.196391
-0.203929
-0.205383
-0.20107
-0.192033
-0.179968
-0.16704
-0.155621
-0.147981
-0.145971
-0.150743
-0.162519
-0.180481
-0.202802
-0.226839
-0.249424
-0.267299
-0.275804
-0.272606
-0.256813
-0.229847
-0.193171
-0.151461
-0.0679951
-0.0936477
-0.12175
-0.150522
-0.178607
-0.204248
-0.22577
-0.241772
-0.251784
-0.255279
-0.252366
-0.243831
-0.231113
-0.216185
-0.201358
-0.18901
-0.181305
-0.179889
-0.18565
-0.198516
-0.217384
-0.240175
-0.264058
-0.285747
-0.301941
-0.307892
-0.301392
-0.281733
-0.250548
-0.209526
-0.163471
-0.0877721
-0.119092
-0.15212
-0.184651
-0.215102
-0.241575
-0.262465
-0.276601
-0.284099
-0.284814
-0.279221
-0.26841
-0.254025
-0.238129
-0.222998
-0.210874
-0.203704
-0.202882
-0.20904
-0.221884
-0.240159
-0.261717
-0.283748
-0.303072
-0.316553
-0.319646
-0.310382
-0.288235
-0.254944
-0.212296
-0.164971
-0.0920843
-0.124042
-0.157106
-0.189033
-0.218234
-0.242963
-0.261744
-0.273669
-0.279213
-0.278474
-0.272101
-0.261254
-0.247535
-0.232848
-0.219216
-0.208566
-0.202514
-0.202155
-0.207896
-0.219338
-0.235256
-0.253676
-0.272087
-0.287697
-0.297796
-0.298401
-0.28788
-0.265982
-0.234279
-0.194475
-0.150732
-0.0799823
-0.107425
-0.135567
-0.162428
-0.186695
-0.206825
-0.221822
-0.230983
-0.234876
-0.233702
-0.228087
-0.219042
-0.207897
-0.196177
-0.185462
-0.177225
-0.172665
-0.172562
-0.177152
-0.186046
-0.19823
-0.212124