# vtk DataFile Version 2.0
Func
ASCII
DATASET RECTILINEAR_GRID
DIMENSIONS 31 31 31
X_COORDINATES 31 double
-9.67742
-9.03226
-8.3871
-7.74194
-7.09677
-6.45161
-5.80645
-5.16129
-4.51613
-3.87097
-3.22581
-2.58065
-1.93548
-1.29032
-0.645161
0
0.645161
1.29032
1.93548
2.58065
3.22581
3.87097
4.51613
5.16129
5.80645
6.45161
7.09677
7.74194
8.3871
9.03226
9.67742
Y_COORDINATES 31 double
-9.67742
-9.03226
-8.3871
-7.74194
-7.09677
-6.45161
-5.80645
-5.16129
-4.51613
-3.87097
-3.22581
-2.58065
-1.93548
-1.29032
-0.645161
0
0.645161
1.29032
1.93548
2.58065
3.22581
3.87097
4.51613
5.16129
5.80645
6.45161
7.09677
7.74194
8.3871
9.03226
9.67742
Z_COORDINATES 31 double
-9.67742
-9.03226
-8.3871
-7.74194
-7.09677
-6.45161
-5.80645
-5.16129
-4.51613
-3.87097
-3.22581
-2.58065
-1.93548
-1.29032
-0.645161
0
0.645161
1.29032
1.93548
2.58065
3.22581
3.87097
4.51613
5.16129
5.80645
6.45161
7.09677
7.74194
8.3871
9.03226
9.67742
POINT_DATA 29791
SCALARS data double 1
LOOKUP_TABLE default
-0.0281829
-0.0359912
-0.0431007
-0.0483221
-0.0513359
-0.0515923
-0.049175
-0.0443566
-0.0377786
-0.0299021
-0.0212369
-0.0122728
-0.0034393
0.00493071
0.0126117
0.0194807
0.0254985
0.0306852
0.0350909
0.0387649
0.0417303
0.0439688
0.0454223
0.0459993
0.0455999
0.0439515
0.0410118
0.036796
0.0316262
0.0257164
0.0195455
-0.0394002
-0.0503331
-0.0599581
-0.0669337
-0.0707412
-0.0706922
-0.0669775
-0.0599883
-0.0507247
-0.0398954
-0.028256
-0.0165114
-0.0052534
0.00509123
0.0142724
0.0222061
0.0289388
0.0346043
0.0393727
0.0433974
0.046774
0.0495141
0.0515439
0.052718
0.052853
0.051512
0.0486053
0.0440751
0.0382449
0.0314012
0.0240142
-0.0425957
-0.0542279
-0.0641861
-0.0711253
-0.0745272
-0.0737837
-0.0691192
-0.0611306
-0.0510317
-0.0397017
-0.0280331
-0.016818
-0.00667138
0.00202533
0.00913267
0.0147292
0.019057
0.0224558
0.0252894
0.0278702
0.0304028
0.0329472
0.0354164
0.0375949
0.0391841
0.0396194
0.0386292
0.0360838
0.0321274
0.0269616
0.0209789
-0.0348343
-0.0439763
-0.0514177
-0.0560788
-0.0576451
-0.0557061
-0.050687
-0.0433224
-0.034837
-0.0261478
-0.0181218
-0.0114584
-0.00661375
-0.00375257
-0.0027523
-0.00324499
-0.00469164
-0.00647055
-0.00797248
-0.00869208
-0.00829868
-0.00667801
-0.00393679
-0.000377615
0.0035586
0.0072209
0.0101189
0.0118795
0.0123878
0.0116212
0.0097795
-0.01761
-0.0213484
-0.0237611
-0.0242261
-0.0227658
-0.0193607
-0.0146072
-0.00933024
-0.00456407
-0.00111898
0.000328422
-0.00066096
-0.00422849
-0.0101892
-0.0180551
-0.0270971
-0.0364368
-0.0451529
-0.0523918
-0.0574683
-0.0599427
-0.0596636
-0.0567709
-0.0516643
-0.0449349
-0.0372862
-0.0294546
-0.0220586
-0.015575
-0.0103049
-0.00630781
0.00442367
0.00746827
0.0112225
0.0157547
0.0206505
0.02548
0.0295049
0.0318864
0.0319259
0.0290299
0.0228209
0.0132152
0.000458693
-0.0148716
-0.0319121
-0.0495916
-0.0667352
-0.0821808
-0.0948958
-0.104078
-0.109232
-0.110205
-0.107188
-0.100677
-0.0913943
-0.0800678
-0.0676403
-0.0549456
-0.0427921
-0.0317364
-0.0220851
0.0260495
0.0355295
0.0450879
0.0541778
0.062042
0.0678446
0.0707816
0.0700881
0.0654761
0.0566332
0.0435259
0.026441
0.00599436
-0.0168974
-0.041078
-0.0652424
-0.0880414
-0.108199
-0.124623
-0.136496
-0.143343
-0.145055
-0.141888
-0.134408
-0.123427
-0.109662
-0.0941688
-0.0779042
-0.0618938
-0.046849
-0.0333079
0.0423697
0.0564724
0.0700932
0.0821667
0.0917205
0.0976489
0.0991841
0.0957226
0.0873832
0.07415
0.0563127
0.0344706
0.00951311
-0.0174316
-0.0450684
-0.072026
-0.0969538
-0.118626
-0.136035
-0.148464
-0.155537
-0.157229
-0.153853
-0.146012
-0.134528
-0.120073
-0.103687
-0.0863238
-0.0690642
-0.0526385
-0.0377431
0.0506667
0.0667456
0.0819199
0.0947701
0.104273
0.109236
0.10903
0.103287
0.0924724
0.0768456
0.0569559
0.0336122
0.00784054
-0.0191821
-0.0462002
-0.07196
-0.095287
-0.115165
-0.130804
-0.141685
-0.147585
-0.14858
-0.145017
-0.137471
-0.126689
-0.113238
-0.098013
-0.0818456
-0.0657182
-0.0502605
-0.0362633
0.0504726
0.0657912
0.0799274
0.0913069
0.0990117
0.101938
0.0996814
0.0921477
0.0800592
0.0638984
0.0443875
0.0224261
-0.000965312
-0.0247172
-0.0477737
-0.0691527
-0.0879951
-0.103611
-0.115512
-0.123429
-0.127309
-0.127307
-0.123754
-0.117125
-0.108
-0.0967632
-0.0840679
-0.0705311
-0.0569456
-0.043777
-0.031876
0.0434134
0.0558314
0.0669098
0.0751118
0.0797334
0.0798958
0.0754565
0.0665977
0.0541927
0.0388804
0.0214615
0.00281562
-0.0161621
-0.034628
-0.0518354
-0.067168
-0.0801545
-0.0904783
-0.0979741
-0.102613
-0.104479
-0.103751
-0.100675
-0.0955446
-0.0886968
-0.0802442
-0.070543
-0.0599593
-0.0490822
-0.0382223
-0.028298
0.0322897
0.0406613
0.0476346
0.0518687
0.0529217
0.0502087
0.0438417
0.0342335
0.0223054
0.00877175
-0.00558048
-0.0199843
-0.033755
-0.0463441
-0.0573633
-0.0665861
-0.0739295
-0.0794259
-0.0831868
-0.08536
-0.0860928
-0.0855043
-0.0836759
-0.0806492
-0.0764575
-0.070865
-0.0639221
-0.0557525
-0.0467988
-0.0372829
-0.0282338
0.0199201
0.0241113
0.0269498
0.0274096
0.0253046
0.020352
0.0128647
0.00340256
-0.00716735
-0.0181483
-0.0288583
-0.0387201
-0.0473149
-0.0544176
-0.0599952
-0.0641791
-0.0672155
-0.0694061
-0.0710448
-0.0723559
-0.0734486
-0.0742936
-0.0747312
-0.0744962
-0.0732858
-0.0704696
-0.0658157
-0.0592454
-0.0511468
-0.0417418
-0.0322232
0.00818138
0.00875484
0.00816642
0.00579115
0.00166215
-0.00423362
-0.0114661
-0.0194392
-0.027446
-0.0349132
-0.0413582
-0.0464649
-0.05012
-0.0524251
-0.0536701
-0.0542787
-0.0547344
-0.0554988
-0.0569325
-0.0592227
-0.0623402
-0.0660263
-0.0698245
-0.0731341
-0.0753136
-0.0753411
-0.0727412
-0.0672824
-0.0593838
-0.0493385
-0.0385387
-0.00246252
-0.00474161
-0.00779083
-0.0117659
-0.0164542
-0.0216432
-0.0268807
-0.0316554
-0.0355363
-0.0381878
-0.0394267
-0.0392689
-0.0379429
-0.0358729
-0.0336289
-0.0318515
-0.0311621
-0.0320699
-0.0348889
-0.0396682
-0.0461596
-0.0538215
-0.061877
-0.0693947
-0.0754224
-0.0786075
-0.0782747
-0.0740826
-0.0665298
-0.0560066
-0.0441006
-0.0127974
-0.0174334
-0.0222092
-0.0267524
-0.030694
-0.0336286
-0.0351705
-0.0350066
-0.0331043
-0.0294789
-0.0243435
-0.0181152
-0.0113968
-0.0049292
0.000480295
0.00404705
0.00510365
0.00319157
-0.00186443
-0.00990187
-0.0204069
-0.0325407
-0.0452224
-0.0572335
-0.0673722
-0.0740693
-0.0764973
-0.0742403
-0.0678772
-0.0578739
-0.0459591
-0.0241802
-0.0312155
-0.0375368
-0.0421974
-0.0446728
-0.0443788
-0.0410646
-0.0347054
-0.0257829
-0.0147565
-0.00231299
0.0106791
0.023225
0.0342847
0.0428616
0.0480977
0.0493616
0.0463255
0.0390184
0.027854
0.0136176
-0.00258391
-0.0194269
-0.0354905
-0.049419
-0.0595827
-0.0650643
-0.0654094
-0.0612456
-0.0530622
-0.0426322
-0.0376272
-0.0476092
-0.0558863
-0.0609203
-0.0620217
-0.0584299
-0.0500724
-0.0372671
-0.021095
-0.00251148
0.0172903
0.0369824
0.0551988
0.0706476
0.0822124
0.0890424
0.0906218
0.0868201
0.0779119
0.0645681
0.0478126
0.0289469
0.00943254
-0.00923438
-0.0256775
-0.0383861
-0.0464448
-0.0494145
-0.0479322
-0.0424578
-0.0346842
-0.0530291
-0.0666921
-0.0776739
-0.0838783
-0.0844535
-0.0784714
-0.0660581
-0.0478863
-0.0256634
-0.000829551
0.0249496
0.0499455
0.0725015
0.0911727
0.104829
0.11273
0.114564
0.110457
0.100952
0.0869538
0.0696559
0.0504424
0.030766
0.0120321
-0.00453073
-0.0177188
-0.026749
-0.0312799
-0.0319344
-0.029114
-0.0242967
-0.0688025
-0.0865882
-0.100914
-0.109231
-0.11056
-0.103844
-0.089409
-0.0682537
-0.0426561
-0.0144575
0.0143183
0.0416795
0.0658324
0.0853368
0.0991999
0.106924
0.108497
0.10436
0.0953264
0.0824898
0.0671121
0.0505141
0.0339607
0.018569
0.00522474
-0.00535946
-0.0126982
-0.0166558
-0.0178416
-0.0166015
-0.0140657
-0.0821214
-0.103721
-0.121446
-0.132479
-0.135794
-0.130282
-0.116462
-0.0955911
-0.0703733
-0.0428969
-0.0153545
0.010209
0.0320801
0.0490321
0.0603944
0.0660588
0.0664165
0.0622639
0.0546747
0.0448559
0.034013
0.0232337
0.0133967
0.00511935
-0.00126117
-0.00569457
-0.00817051
-0.00887728
-0.00842243
-0.00711693
-0.0056182
-0.089684
-0.11379
-0.134073
-0.147694
-0.153702
-0.151056
-0.14045
-0.123307
-0.102535
-0.0802638
-0.0586155
-0.039433
-0.0240979
-0.0133952
-0.00748254
-0.00593885
-0.00788843
-0.0121573
-0.017454
-0.0225529
-0.0264481
-0.0284624
-0.0283004
-0.0260457
-0.0220969
-0.0172149
-0.0120189
-0.00711879
-0.00311998
-0.000310599
0.00123648
-0.0887583
-0.113139
-0.13422
-0.149421
-0.158004
-0.159139
-0.153671
-0.143087
-0.130225
-0.117038
-0.105327
-0.0964768
-0.091299
-0.089932
-0.0918657
-0.096051
-0.101089
-0.105448
-0.107689
-0.106682
-0.101766
-0.0928363
-0.0803489
-0.0652454
-0.0487966
-0.0326844
-0.0182494
-0.00657136
0.00178379
0.00657131
0.00839724
-0.0781878
-0.1001
-0.119619
-0.134676
-0.14488
-0.149737
-0.15022
-0.147771
-0.144894
-0.143163
-0.143846
-0.147669
-0.154697
-0.164291
-0.175195
-0.185706
-0.193929
-0.19804
-0.196554
-0.188556
-0.173851
-0.153029
-0.127395
-0.0988273
-0.0695207
-0.0421211
-0.0186911
-0.000751542
0.011247
0.0171667
0.0183515
-0.0590049
-0.0758468
-0.0914139
-0.104336
-0.114648
-0.122286
-0.128303
-0.134014
-0.141367
-0.151421
-0.164782
-0.18141
-0.200557
-0.220789
-0.240129
-0.256293
-0.266985
-0.270206
-0.26454
-0.249384
-0.225089
-0.192975
-0.155202
-0.114549
-0.0740696
-0.0373225
-0.00698092
0.0150917
0.0286636
0.033792
0.0325568
-0.0343167
-0.0442947
-0.0541257
-0.0632144
-0.0720382
-0.0809768
-0.0911186
-0.103583
-0.11964
-0.139782
-0.163928
-0.191291
-0.220372
-0.249045
-0.274753
-0.294788
-0.306617
-0.30821
-0.298324
-0.276734
-0.244333
-0.203113
-0.155972
-0.106431
-0.0582181
-0.0156345
0.0182377
0.0413501
0.0537821
0.0558618
0.0503359
-0.00899529
-0.0117007
-0.0152142
-0.0196412
-0.0258266
-0.0345292
-0.0468067
-0.0635454
-0.0853357
-0.112149
-0.143315
-0.177453
-0.212512
-0.245907
-0.274751
-0.296152
-0.307551
-0.307037
-0.293628
-0.267464
-0.229886
-0.18337
-0.131299
-0.0776349
-0.0264688
0.017476
0.0509827
0.0720082
0.0809736
0.0785014
0.067753
0.0120499
0.0154846
0.0175038
0.0174503
0.0142596
0.00692964
-0.00549273
-0.0236518
-0.0475669
-0.0768168
-0.110337
-0.146401
-0.182702
-0.216511
-0.24492
-0.265134
-0.274783
-0.272218
-0.256746
-0.228798
-0.189977
-0.14296
-0.0912603
-0.0388858
0.0101041
0.0509898
0.0807194
0.0974279
0.101835
0.094787
0.0796499
0.0245633
0.0316581
0.0371326
0.0400517
0.0393179
0.0339105
0.0230184
0.0062306
-0.0160979
-0.0433419
-0.0743055
-0.107239
-0.139931
-0.169873
-0.194476
-0.211329
-0.218461
-0.214581
-0.199275
-0.173125
-0.137732
-0.0956158
-0.0499868
-0.00444099
0.0374379
0.0714367
0.0949442
0.106493
0.106902
0.0971144
0.0803986
0.0269791
0.0348293
0.0412358
0.0452478
0.0459425
0.042398
0.0340953
0.0207893
0.0029702
-0.0187307
-0.0432421
-0.0690865
-0.0944649
-0.117394
-0.135877
-0.148101
-0.152627
-0.14857
-0.135732
-0.114685
-0.086772
-0.054026
-0.0189797
0.0155668
0.0468633
0.0716507
0.088036
0.0948098
0.0928598
0.0829991
0.0680637
0.0213905
0.027593
0.0327965
0.036201
0.0372089
0.0351542
0.0297372
0.0208905
0.00903243
-0.00534693
-0.0214759
-0.038336
-0.0547227
-0.06934
-0.0809113
-0.0883029
-0.0906424
-0.0874264
-0.078598
-0.0645924
-0.0463303
-0.0251626
-0.00274148
0.0191256
0.038689
0.0539011
0.0635105
0.0667826
0.0644292
0.0569053
0.0464908
-0.0472268
-0.0603876
-0.0721874
-0.0808232
-0.085698
-0.0859679
-0.0817297
-0.0733851
-0.0620468
-0.0484996
-0.0336143
-0.0182357
-0.00311276
0.0111637
0.0241822
0.0357081
0.0456542
0.054044
0.0609649
0.0665166
0.0707708
0.0737433
0.0753915
0.075622
0.0743227
0.0710816
0.0659015
0.0588555
0.0503941
0.0408751
0.0309714
-0.0656763
-0.0839699
-0.0999486
-0.111478
-0.117664
-0.117495
-0.11119
-0.099282
-0.0834859
-0.0649831
-0.0450441
-0.024871
-0.00549179
0.0123264
0.0281042
0.0416403
0.0529593
0.0622458
0.0697667
0.0757857
0.0804981
0.083986
0.086209
0.0870187
0.0862036
0.0831103
0.0777228
0.0700363
0.0604619
0.049441
0.0376635
-0.0718364
-0.091544
-0.108387
-0.12015
-0.125919
-0.12481
-0.11705
-0.103481
-0.0861684
-0.0665634
-0.0461634
-0.0263266
-0.00814305
0.00766018
0.0207437
0.0311282
0.0391143
0.0451851
0.0498934
0.0537455
0.0571091
0.0601553
0.0628429
0.0649402
0.0660846
0.0654551
0.0627716
0.0579438
0.0511096
0.0425815
0.032932
-0.0611785
-0.0774344
-0.0908285
-0.0994778
-0.102759
-0.100025
-0.0918155
-0.0791928
-0.0642337
-0.0484504
-0.0333105
-0.0200455
-0.00952322
-0.0021628
0.00207146
0.00361678
0.00320341
0.00172471
9.36373e-05
-0.000898471
-0.000692918
0.000967654
0.0040222
0.00812055
0.0127001
0.01684
0.0199217
0.0214748
0.0212933
0.0193607
0.0159546
-0.0357347
-0.0440825
-0.0501612
-0.0527672
-0.051778
-0.0470703
-0.0394476
-0.0301343
-0.0208899
-0.0130561
-0.00780833
-0.00598457
-0.00798225
-0.0137017
-0.0225683
-0.0336162
-0.0456208
-0.0572548
-0.0672535
-0.0745674
-0.0784832
-0.0786937
-0.0753108
-0.0688277
-0.0600276
-0.0498816
-0.0394025
-0.0294425
-0.0206966
-0.0135936
-0.00826979
-0.00263919
-0.000913953
0.00211816
0.00681247
0.0127002
0.0193065
0.0256011
0.0303067
0.0322208
0.0303464
0.0239752
0.0128154
-0.00294186
-0.0226074
-0.0450481
-0.0687972
-0.092202
-0.113594
-0.131462
-0.144602
-0.152235
-0.154068
-0.150299
-0.141571
-0.128867
-0.113171
-0.095833
-0.078037
-0.0609158
-0.0452717
-0.0316236
0.0303567
0.0418084
0.0535482
0.0650004
0.0751696
0.0830387
0.0874672
0.0872652
0.081911
0.0708594
0.0539453
0.031456
0.00415206
-0.0267613
-0.0597154
-0.0929047
-0.124436
-0.152496
-0.175512
-0.192287
-0.202098
-0.20474
-0.200524
-0.190212
-0.174916
-0.155601
-0.133796
-0.110865
-0.0882167
-0.0668752
-0.047668
0.0558172
0.0744302
0.0924102
0.1084
0.121061
0.129017
0.131179
0.126589
0.115402
0.0975522
0.073392
0.0437033
0.00967447
-0.0271654
-0.0650437
-0.102072
-0.136379
-0.166259
-0.190299
-0.207486
-0.217278
-0.21962
-0.214929
-0.204026
-0.188044
-0.167877
-0.145028
-0.120832
-0.0967415
-0.0738012
-0.0529953
0.0696283
0.0915913
0.112207
0.129585
0.142293
0.148831
0.148329
0.14019
0.125151
0.103591
0.0762871
0.0443611
0.00922333
-0.0275186
-0.0641588
-0.0990037
-0.130474
-0.157212
-0.178167
-0.192659
-0.200407
-0.201529
-0.196509
-0.186135
-0.171421
-0.153109
-0.132467
-0.110602
-0.0887994
-0.0679404
-0.0490395
0.07106
0.0924184
0.111942
0.127506
0.137809
0.141469
0.137964
0.127137
0.110155
0.0877691
0.061044
0.0312634
-0.00015577
-0.0317636
-0.0621622
-0.0900848
-0.114453
-0.13443
-0.149454
-0.159249
-0.163818
-0.163416
-0.158514
-0.149749
-0.137877
-0.123371
-0.107105
-0.0898205
-0.0725005
-0.0557692
-0.0406132
0.0625098
0.080178
0.0957235
0.107058
0.113179
0.112996
0.106398
0.0936751
0.0762606
0.0551691
0.0316107
0.00686143
-0.0178356
-0.0413656
-0.0628017
-0.0814413
-0.0968111
-0.108661
-0.116939
-0.121755
-0.123337
-0.121986
-0.11805
-0.111887
-0.103876
-0.0940791
-0.0828992
-0.0706631
-0.0580299
-0.0453815
-0.0337098
0.0481098
0.0604544
0.07056
0.0765839
0.0778949
0.073786
0.0645347
0.0508158
0.0341635
0.0157294
-0.00327285
-0.0217155
-0.038656
-0.0534158
-0.0656063
-0.0751181
-0.0820726
-0.0867583
-0.0895543
-0.0908478
-0.0909667
-0.0901287
-0.0884264
-0.0858321
-0.0822521
-0.0772091
-0.0706366
-0.0624798
-0.0531545
-0.0429057
-0.0328396
0.0319765
0.0388293
0.0435083
0.0445584
0.0417149
0.0346579
0.0239635
0.0105594
-0.00407961
-0.0188105
-0.0325563
-0.0444541
-0.0539424
-0.0608142
-0.0652056
-0.0675394
-0.0684288
-0.0685653
-0.0686011
-0.0690351
-0.0701323
-0.0718793
-0.0739957
-0.0759798
-0.0772193
-0.076616
-0.0736858
-0.0680799
-0.0601103
-0.050029
-0.0391924
0.0167761
0.0189591
0.0192733
0.0167467
0.011429
0.00333877
-0.00678933
-0.0179499
-0.0288945
-0.0386538
-0.0464332
-0.0517409
-0.0544522
-0.0548284
-0.0534688
-0.0512141
-0.0490138
-0.0477798
-0.0482445
-0.0508321
-0.0555801
-0.0621127
-0.0696867
-0.0772828
-0.0837701
-0.0874261
-0.0874253
-0.083224
-0.0751744
-0.0636571
-0.0503865
0.00304034
0.00162991
-0.00102443
-0.00533332
-0.0109898
-0.017702
-0.0247317
-0.0311887
-0.0362336
-0.0392509
-0.0398819
-0.0381139
-0.0343088
-0.0291812
-0.0237165
-0.0190435
-0.0162793
-0.0163683
-0.0199349
-0.0271597
-0.0377184
-0.0507836
-0.0651103
-0.0791697
-0.0913609
-0.0994282
-0.102281
-0.0992651
-0.0908742
-0.0776756
-0.0617751
-0.0105603
-0.0149255
-0.0195374
-0.024164
-0.0282732
-0.0313518
-0.0327985
-0.0320172
-0.0287765
-0.0229928
-0.0148957
-0.00505742
0.00562662
0.0160044
0.0247803
0.0306619
0.0325193
0.0295421
0.0213694
0.00818962
-0.00923039
-0.0295824
-0.0511424
-0.07194
-0.0900032
-0.102724
-0.108819
-0.107591
-0.0997107
-0.0859183
-0.0686537
-0.0261714
-0.033674
-0.0400784
-0.0444282
-0.0459669
-0.0439864
-0.0381276
-0.0282297
-0.0148616
0.00137701
0.019544
0.0384013
0.0564921
0.0722564
0.0841682
0.0908892
0.0914134
0.085199
0.0722611
0.0532276
0.029326
0.0023061
-0.0257204
-0.0524725
-0.0757584
-0.0928658
-0.102411
-0.103705
-0.0975907
-0.0849107
-0.0683021
-0.0453738
-0.0569509
-0.0658682
-0.0703875
-0.069514
-0.062355
-0.048857
-0.0293798
-0.00544206
0.0215845
0.0499841
0.0778324
0.103137
0.123999
0.138769
0.146189
0.145506
0.136554
0.119795
0.0963148
0.0677544
0.0361985
0.00398701
-0.0264832
-0.0530065
-0.0730537
-0.0852705
-0.0890568
-0.0853865
-0.0751309
-0.0609342
-0.0680109
-0.0848694
-0.0975157
-0.103438
-0.101406
-0.0903617
-0.0705812
-0.042968
-0.0100503
0.0260317
0.0628275
0.0978024
0.12854
0.152947
0.169403
0.176887
0.17503
0.164137
0.145153
0.119584
0.0893871
0.0568087
0.0241952
-0.0061946
-0.0323987
-0.0523697
-0.0649731
-0.0698117
-0.0679608
-0.0602634
-0.0491637
-0.0916826
-0.114581
-0.131999
-0.140762
-0.139456
-0.126908
-0.103724
-0.0713129
-0.0331439
0.00798944
0.0490599
0.0871165
0.119538
0.144258
0.159911
0.165897
0.162375
0.150198
0.130797
0.106027
0.0780006
0.0489046
0.0208176
-0.00443983
-0.0254457
-0.0409253
-0.0502066
-0.0532491
-0.0512107
-0.0448867
-0.0363148
-0.112113
-0.140688
-0.163048
-0.175588
-0.17683
-0.165586
-0.142775
-0.110222
-0.0721248
-0.0317079
0.00769841
0.0430304
0.0717741
0.0921941
0.103437
0.105541
0.0993272
0.086254
0.0682058
0.0472677
0.0255089
0.00479378
-0.0133718
-0.0279275
-0.0383007
-0.0442594
-0.0458557
-0.0435708
-0.038629
-0.0317771
-0.0244479
-0.124314
-0.156714
-0.18286
-0.19905
-0.203921
-0.196416
-0.177744
-0.150016
-0.117824
-0.0845156
-0.0533728
-0.0271985
-0.00803339
0.0030464
0.00597287
0.00161092
-0.00844413
-0.0221182
-0.0371497
-0.0513841
-0.0630218
-0.0708
-0.0740894
-0.0728962
-0.0677786
-0.0597813
-0.0499054
-0.0392851
-0.0291718
-0.0202487
-0.0131553
-0.124147
-0.157153
-0.184577
-0.203017
-0.211426
-0.209055
-0.19736
-0.178606
-0.157349
-0.136731
-0.119609
-0.108148
-0.103565
-0.105981
-0.114463
-0.127187
-0.141747
-0.155503
-0.165941
-0.17103
-0.169472
-0.160865
-0.145715
-0.125336
-0.101622
-0.0770676
-0.0537504
-0.0335095
-0.0175364
-0.00639132
0.000254435
-0.10982
-0.139458
-0.164774
-0.183037
-0.193711
-0.196496
-0.193064
-0.185679
-0.178442
-0.173978
-0.174395
-0.180916
-0.193675
-0.211652
-0.232803
-0.25433
-0.273075
-0.285951
-0.29037
-0.284616
-0.268101
-0.241474
-0.206536
-0.166031
-0.123262
-0.082248
-0.0461276
-0.0173776
0.00299962
0.0146803
0.0190958
-0.0827772
-0.105272
-0.125051
-0.140335
-0.151215
-0.15794
-0.162325
-0.166513
-0.17379
-0.186046
-0.204433
-0.229064
-0.258889
-0.291722
-0.324461
-0.353449
-0.374944
-0.385609
-0.382967
-0.365795
-0.33434
-0.290375
-0.23701
-0.178366
-0.119058
-0.0645585
-0.0188806
0.0150312
0.0365195
0.0456344
0.0449599
-0.0475397
-0.0602902
-0.0719871
-0.0819241
-0.090839
-0.09953
-0.109881
-0.123804
-0.143561
-0.170208
-0.203891
-0.243626
-0.287265
-0.331612
-0.372722
-0.406329
-0.428362
-0.435465
-0.425459
-0.397714
-0.353329
-0.29512
-0.227335
-0.155237
-0.0844703
-0.0217014
0.0284942
0.062959
0.0815109
0.0846803
0.0761422
-0.0112236
-0.0136632
-0.0164892
-0.0199853
-0.0254232
-0.034049
-0.0477055
-0.0680008
-0.096144
-0.132405
-0.176049
-0.225211
-0.276931
-0.327347
-0.372043
-0.406515
-0.42669
-0.429434
-0.413
-0.377353
-0.324307
-0.257445
-0.181775
-0.103247
-0.0280623
0.0364144
0.0854602
0.115993
0.128348
0.12355
0.106036
0.0191006
0.0253697
0.0302613
0.0327234
0.031163
0.0240673
0.00975938
-0.0130243
-0.0445858
-0.084577
-0.131651
-0.183412
-0.236511
-0.286876
-0.33008
-0.361793
-0.378264
-0.376796
-0.356127
-0.316715
-0.260812
-0.192353
-0.116577
-0.039534
0.0326062
0.0924406
0.135527
0.159103
0.163963
0.151509
0.126597
0.0370973
0.0485057
0.058072
0.0643877
0.0658171
0.0608876
0.0481549
0.0267191
-0.00309873
-0.0405972
-0.0841906
-0.131413
-0.179042
-0.223328
-0.260333
-0.286324
-0.298187
-0.293809
-0.272398
-0.234688
-0.182984
-0.121025
-0.0536364
0.0137283
0.0755969
0.125313
0.159098
0.174837
0.173483
0.156584
0.128886
0.0405666
0.0529124
0.0634927
0.0709158
0.073796
0.0708153
0.0610168
0.0437928
0.0197326
-0.0103895
-0.0451146
-0.082333
-0.1194
-0.153333
-0.181076
-0.199806
-0.207236
-0.201903
-0.183385
-0.152454
-0.111077
-0.0623067
-0.00999184
0.0415817
0.088175
0.124582
0.148076
0.156885
0.152151
0.135232
0.110233
0.0324436
0.0422273
0.0507212
0.0568065
0.0595427
0.0579503
0.0514617
0.0398216
0.0235629
0.00331652
-0.0198427
-0.0444347
-0.0686605
-0.0905416
-0.108093
-0.119519
-0.123405
-0.118895
-0.105823
-0.0847961
-0.057192
-0.025076
0.00899486
0.0422045
0.0718051
0.09448
0.108359
0.11233
0.107405
0.0944334
0.0766388
-0.0681603
-0.0872071
-0.104169
-0.11656
-0.123469
-0.123727
-0.117357
-0.10494
-0.0880751
-0.0679009
-0.0456925
-0.0227079
-8.31028e-05
0.0212599
0.0406522
0.0576812
0.0721584
0.0840733
0.0935339
0.100697
0.105711
0.108675
0.109626
0.108543
0.105379
0.0996679
0.091486
0.0810477
0.0689241
0.0556168
0.0419466
-0.0950774
-0.121618
-0.144754
-0.161468
-0.170405
-0.170172
-0.160885
-0.143294
-0.119848
-0.0922407
-0.0623225
-0.0318804
-0.00248272
0.0246493
0.0486934
0.0692255
0.0861598
0.0996691
0.110086
0.117789
0.123112
0.126281
0.127385
0.126388
0.123168
0.116995
0.107964
0.0962462
0.0823424
0.066862
0.0506403
-0.105668
-0.134775
-0.159723
-0.177319
-0.186119
-0.184861
-0.173625
-0.153564
-0.127625
-0.09788
-0.0665126
-0.0355622
-0.00673319
0.0187477
0.0401844
0.0573923
0.0706045
0.0803542
0.0873331
0.0922372
0.0956428
0.0979214
0.099203
0.0993888
0.098208
0.0947636
0.0888466
0.0805375
0.0699927
0.057667
0.0442075
-0.0935065
-0.118685
-0.139721
-0.153785
-0.159785
-0.156707
-0.145051
-0.126228
-0.103215
-0.0781664
-0.0532433
-0.0303432
-0.0109117
0.00418965
0.0147153
0.0209856
0.0237592
0.0240764
0.0230793
0.0218279
0.0211508
0.0215464
0.0231423
0.025715
0.0287654
0.0313055
0.0327251
0.0325932
0.0306487
0.026912
0.0216336
-0.0612361
-0.0765129
-0.0884391
-0.0950604
-0.0959262
-0.0906481
-0.0800999
-0.0658574
-0.0504715
-0.0358605
-0.0237951
-0.0156582
-0.01229
-0.0138901
-0.0200238
-0.0297086
-0.041571
-0.0540343
-0.065524
-0.0746644
-0.0804383
-0.0822878
-0.080149
-0.0744217
-0.0658787
-0.055552
-0.0445305
-0.0337745
-0.0241397
-0.0161401
-0.0100925
-0.0183003
-0.0206867
-0.0210088
-0.0184388
-0.0132976
-0.00591708
0.0024874
0.0103305
0.0158199
0.0175167
0.014285
0.00547281
-0.00898364
-0.0285167
-0.0519758
-0.0777472
-0.103929
-0.128533
-0.1497
-0.165885
-0.176015
-0.179573
-0.176624
-0.167767
-0.154036
-0.136477
-0.116585
-0.0957829
-0.0754425
-0.0565506
-0.0399313
0.0252443
0.0355408
0.0465116
0.0577464
0.0682272
0.0769646
0.0825551
0.0835916
0.0792192
0.0686301
0.0514355
0.0277705
-0.00166573
-0.0356252
-0.0723964
-0.109945
-0.146087
-0.178685
-0.205846
-0.226078
-0.238425
-0.242522
-0.238604
-0.227448
-0.21026
-0.188073
-0.162586
-0.135467
-0.108387
-0.0825935
-0.0592731
0.0595902
0.0794603
0.0987347
0.115954
0.129641
0.138366
0.140766
0.135795
0.12354
0.103865
0.0770996
0.0440607
0.00602889
-0.0353163
-0.078005
-0.119918
-0.158937
-0.193109
-0.220802
-0.240821
-0.25249
-0.255686
-0.250816
-0.238756
-0.220745
-0.197749
-0.171398
-0.143304
-0.11514
-0.0881316
-0.0635891
0.0793987
0.104137
0.127276
0.146632
0.160583
0.167554
0.16645
0.15675
0.139358
0.114771
0.0839149
0.0480867
0.00888094
-0.0319123
-0.0724185
-0.110798
-0.145351
-0.174629
-0.197525
-0.21333
-0.221767
-0.222979
-0.217495
-0.206166
-0.190083
-0.170043
-0.147331
-0.123225
-0.0991196
-0.0759709
-0.0550168
0.0837588
0.108485
0.130907
0.148496
0.15978
0.163316
0.158478
0.145342
0.125448
0.0998182
0.0697999
0.0369371
0.00285696
-0.0308468
-0.0627089
-0.0914687
-0.116115
-0.135926
-0.150478
-0.159643
-0.16356
-0.162589
-0.157273
-0.148277
-0.13636
-0.12199
-0.105909
-0.0888636
-0.0718013
-0.0552865
-0.0403976
0.0758153
0.0967686
0.114977
0.127903
0.134435
0.133463
0.12492
0.10948
0.0890975
0.0651822
0.0393137
0.0130631
-0.0121413
-0.035129
-0.0550494
-0.0713916
-0.0839597
-0.0928292
-0.0982831
-0.100735
-0.10065
-0.098482
-0.0946275
-0.0894048
-0.0830705
-0.0755793
-0.067026
-0.0575763
-0.0477075
-0.0376245
-0.0283053
0.0609015
0.0761687
0.0884744
0.0955223
0.0966433
0.0911566
0.0795308
0.0629341
0.0435264
0.0229361
0.00279123
-0.0154894
-0.0308343
-0.0426172
-0.0506762
-0.0552726
-0.0569941
-0.056635
-0.0550598
-0.0530661
-0.0512712
-0.0500339
-0.0494319
-0.0492808
-0.0492187
-0.0485035
-0.0465951
-0.0431477
-0.0382875
-0.032022
-0.0254099
0.0442167
0.0537159
0.0602703
0.0619851
0.0586111
0.0498862
0.036689
0.0204975
0.00346869
-0.0127428
-0.0266412
-0.0371049
-0.0435134
-0.0458151
-0.0445003
-0.0405008
-0.0350305
-0.0294014
-0.0248314
-0.0222645
-0.0222383
-0.024813
-0.0295812
-0.0357407
-0.0422526
-0.0475562
-0.0505647
-0.0505688
-0.0475481
-0.0415329
-0.033896
0.0289637
0.0338033
0.0360229
0.0342309
0.0285163
0.018961
0.00666072
-0.00683788
-0.0196006
-0.030165
-0.0373557
-0.0404803
-0.0394294
-0.0347051
-0.0273481
-0.0187871
-0.0106329
-0.00444978
-0.00153217
-0.00270417
-0.00818977
-0.0175651
-0.0298136
-0.0434566
-0.0567834
-0.0673976
-0.0737891
-0.0750499
-0.0712307
-0.0625799
-0.0509841
0.0154954
0.0170124
0.0166493
0.0136062
0.00822843
0.000848567
-0.0074324
-0.0152611
-0.0211738
-0.0241404
-0.0235077
-0.0191499
-0.0115241
-0.00165223
0.0089953
0.0186856
0.0256571
0.028365
0.0257094
0.0172292
0.0032076
-0.0153178
-0.0366626
-0.0586825
-0.0790654
-0.094687
-0.103742
-0.105259
-0.0995281
-0.0871251
-0.0705486
0.0017365
0.000611322
-0.00116304
-0.00368604
-0.00640016
-0.00879302
-0.00994715
-0.00894799
-0.00507768
0.00201826
0.0122652
0.0250818
0.0393847
0.0536621
0.0661263
0.0749212
0.0783583
0.0751524
0.0646242
0.0468599
0.0227729
-0.00593502
-0.0369348
-0.0675045
-0.094865
-0.115393
-0.127112
-0.129079
-0.121916
-0.106529
-0.0859938
-0.0153934
-0.0196069
-0.022767
-0.0241466
-0.0229702
-0.0185806
-0.0103816
0.00190529
0.0179762
0.0372971
0.0588879
0.0813427
0.102909
0.121623
0.135487
0.142688
0.141801
0.131995
0.113175
0.0860856
0.0523074
0.0141675
-0.0254726
-0.0634816
-0.0968135
-0.121669
-0.136036
-0.139071
-0.131745
-0.11522
-0.0929935
-0.0381422
-0.0468992
-0.0525829
-0.0535305
-0.0487171
-0.0373495
-0.0192328
0.00515029
0.034248
0.0664996
0.0999178
0.132224
0.161014
0.183949
0.198958
0.204432
0.199386
0.183593
0.157647
0.122982
0.0818032
0.0369307
-0.00844155
-0.0510225
-0.0877666
-0.115075
-0.131081
-0.135125
-0.128498
-0.112518
-0.0908617
-0.0663941
-0.0815052
-0.0914853
-0.0937019
-0.0868655
-0.0700599
-0.043522
-0.00853763
0.0319802
0.0754236
0.118819
0.159089
0.193294
0.218887
0.233909
0.237149
0.228231
0.207649
0.176741
0.137597
0.0929128
0.0457912
-0.000525175
-0.0429106
-0.0786505
-0.104744
-0.119711
-0.123204
-0.116796
-0.101874
-0.0820139
-0.0970316
-0.119723
-0.135534
-0.14096
-0.134491
-0.115138
-0.083567
-0.041827
0.00586265
0.0559711
0.104715
0.148435
0.183914
0.208662
0.221092
0.220619
0.207647
0.183489
0.150223
0.110494
0.0672928
0.0237123
-0.0173072
-0.0531902
-0.0819321
-0.101521
-0.111159
-0.110993
-0.102831
-0.0880796
-0.0699191
-0.124448
-0.154487
-0.176533
-0.186459
-0.182672
-0.164207
-0.132152
-0.0891979
-0.0406243
0.00938358
0.0565601
0.0970295
0.127674
0.146416
0.152362
0.145801
0.128075
0.10137
0.06845
0.0323529
-0.0039032
-0.0375783
-0.0664316
-0.0888537
-0.103945
-0.111048
-0.110366
-0.102724
-0.0901128
-0.0739277
-0.0566549
-0.14208
-0.177315
-0.204293
-0.218667
-0.218968
-0.204413
-0.176487
-0.138355
-0.0959313
-0.0536743
-0.0158926
0.0137835
0.0327816
0.0398428
0.0350842
0.019894
-0.00333668
-0.0315519
-0.061424
-0.0897498
-0.113793
-0.131538
-0.141845
-0.144469
-0.139977
-0.129387
-0.114166
-0.0959659
-0.0768623
-0.0581832
-0.0414287
-0.14444
-0.180952
-0.209837
-0.227012
-0.231383
-0.222526
-0.202304
-0.174142
-0.144049
-0.116326
-0.0948474
-0.082519
-0.0809306
-0.0901636
-0.10883
-0.134303
-0.163121
-0.191451
-0.215596
-0.232457
-0.239907
-0.237009
-0.224072
-0.202532
-0.174686
-0.143475
-0.11177
-0.0820836
-0.0564263
-0.0359401
-0.0208559
-0.129037
-0.161925
-0.188571
-0.205631
-0.212623
-0.209636
-0.198867
-0.183787
-0.169937
-0.161052
-0.160144
-0.169
-0.187899
-0.215511
-0.249062
-0.284685
-0.31795
-0.344443
-0.360347
-0.362958
-0.351048
-0.325029
-0.286885
-0.239901
-0.188202
-0.136764
-0.089825
-0.0506395
-0.0209521
-0.00153495
0.00888083
-0.0975047
-0.122081
-0.142279
-0.155858
-0.163094
-0.164679
-0.163073
-0.161589
-0.16482
-0.175625
-0.195867
-0.225987
-0.264812
-0.309573
-0.356184
-0.399709
-0.434993
-0.457317
-0.463027
-0.450065
-0.4183
-0.369614
-0.307699
-0.237637
-0.165259
-0.0974951
-0.0397005
0.00437438
0.0334745
0.047405
0.0490479
-0.0553912
-0.0684106
-0.0790419
-0.0863268
-0.0913214
-0.095307
-0.100903
-0.111092
-0.129213
-0.157093
-0.195351
-0.243073
-0.297729
-0.355305
-0.410678
-0.45818
-0.492278
-0.508273
-0.502935
-0.475018
-0.425536
-0.357755
-0.276878
-0.189489
-0.102768
-0.0252675
0.0369472
0.0799719
0.103221
0.10723
0.0964436
-0.0115462
-0.0122984
-0.0124416
-0.0122258
-0.0133489
-0.0175501
-0.0274509
-0.0455811
-0.0739462
-0.113368
-0.163346
-0.221854
-0.285351
-0.349004
-0.407133
-0.453814
-0.483567
-0.492044
-0.476635
-0.436928
-0.37492
-0.29493
-0.203189
-0.107207
-0.0149042
0.0641894
0.12384
0.160351
0.173863
0.165658
0.141336
0.0253103
0.0349177
0.04382
0.0508249
0.0538547
0.0509244
0.0395965
0.0178651
-0.0150897
-0.0592608
-0.113336
-0.17459
-0.238981
-0.301421
-0.356242
-0.397786
-0.421048
-0.422307
-0.399654
-0.353387
-0.286149
-0.202783
-0.109881
-0.0151305
0.0735596
0.146544
0.197969
0.224622
0.227297
0.207852
0.172559
0.0472198
0.0628305
0.0769772
0.0880398
0.0939016
0.0926917
0.0822787
0.0612128
0.0295345
-0.0122248
-0.0623817
-0.118071
-0.175375
-0.229608
-0.275737
-0.308903
-0.324966
-0.321025
-0.295848
-0.250174
-0.18679
-0.110366
-0.0270244
0.0562626