# vtk DataFile Version 2.0
Func
ASCII
DATASET RECTILINEAR_GRID
DIMENSIONS 31 31 31
X_COORDINATES 31 double
-9.67742
-9.03226
-8.3871
-7.74194
-7.09677
-6.45161
-5.80645
-5.16129
-4.51613
-3.87097
-3.22581
-2.58065
-1.93548
-1.29032
-0.645161
0
0.645161
1.29032
1.93548
2.58065
3.22581
3.87097
4.51613
5.16129
5.80645
6.45161
7.09677
7.74194
8.3871
9.03226
9.67742
Y_COORDINATES 31 double
-9.67742
-9.03226
-8.3871
-7.74194
-7.09677
-6.45161
-5.80645
-5.16129
-4.51613
-3.87097
-3.22581
-2.58065
-1.93548
-1.29032
-0.645161
0
0.645161
1.29032
1.93548
2.58065
3.22581
3.87097
4.51613
5.16129
5.80645
6.45161
7.09677
7.74194
8.3871
9.03226
9.67742
Z_COORDINATES 31 double
-9.67742
-9.03226
-8.3871
-7.74194
-7.09677
-6.45161
-5.80645
-5.16129
-4.51613
-3.87097
-3.22581
-2.58065
-1.93548
-1.29032
-0.645161
0
0.645161
1.29032
1.93548
2.58065
3.22581
3.87097
4.51613
5.16129
5.80645
6.45161
7.09677
7.74194
8.3871
9.03226
9.67742
POINT_DATA 29791
SCALARS data double 1
LOOKUP_TABLE default
0.0361832
0.0487842
0.0616042
0.0737911
0.0847337
0.0936016
0.0999537
0.103451
0.104268
0.102458
0.098274
0.0921675
0.0847561
0.0767734
0.0690044
0.0622086
0.057044
0.0539912
0.0532933
0.0549122
0.058518
0.0635093
0.0690827
0.0743138
0.0782862
0.0797656
0.0780921
0.0728896
0.0647524
0.0540078
0.0422176
0.0512822
0.0694151
0.0879584
0.105817
0.122043
0.135478
0.145379
0.151092
0.152785
0.15044
0.144362
0.13517
0.123771
0.111282
0.0989316
0.0879372
0.0793805
0.0740815
0.0724951
0.0746341
0.0800455
0.0878366
0.0967783
0.105434
0.112351
0.115544
0.114027
0.107179
0.0957517
0.0803208
0.0628737
0.0601058
0.0817757
0.10421
0.126178
0.146502
0.163818
0.177001
0.185146
0.188263
0.186181
0.179149
0.167849
0.153367
0.137109
0.120672
0.105685
0.093633
0.0856879
0.0825592
0.0843808
0.0906672
0.100342
0.11186
0.123379
0.132998
0.138135
0.137394
0.130055
0.11687
0.0985229
0.0773533
0.0600732
0.0825202
0.106226
0.129995
0.15259
0.172482
0.188367
0.199064
0.204284
0.203614
0.197124
0.185405
0.169556
0.151105
0.131865
0.113747
0.0985578
0.0877817
0.0823999
0.0827405
0.088412
0.0983209
0.110802
0.123803
0.135165
0.14197
0.142563
0.135976
0.122958
0.104147
0.0820251
0.0526005
0.0733647
0.0959442
0.119384
0.142512
0.163824
0.181871
0.195242
0.203264
0.205223
0.200902
0.190659
0.17544
0.156712
0.136323
0.116308
0.098666
0.0851212
0.0769095
0.0746042
0.0780235
0.0862292
0.097648
0.110252
0.121845
0.129463
0.131319
0.126312
0.115033
0.097982
0.0775645
0.041556
0.0593826
0.0796025
0.101577
0.124281
0.146335
0.166218
0.18234
0.193634
0.199075
0.198115
0.190802
0.177813
0.160419
0.140359
0.119648
0.100356
0.0843535
0.0730861
0.0673806
0.0673296
0.0722683
0.080872
0.0913202
0.101567
0.108831
0.111333
0.107909
0.0989409
0.0847339
0.0674782
0.0305675
0.0453211
0.0629299
0.0830906
0.104953
0.127315
0.148647
0.167252
0.181747
0.190847
0.193702
0.190041
0.180235
0.165283
0.146715
0.126413
0.106398
0.088585
0.0745507
0.0653341
0.0613046
0.0621178
0.0667848
0.0738076
0.0814201
0.0871803
0.0894363
0.0870468
0.0801772
0.0689432
0.0551666
0.0228924
0.0353795
0.0509649
0.0696011
0.0905885
0.112901
0.135058
0.155341
0.172209
0.184229
0.190351
0.190061
0.183465
0.171293
0.154828
0.135748
0.115932
0.097236
0.0812664
0.0691862
0.0615782
0.0583857
0.0589546
0.0621394
0.0665052
0.07001
0.071213
0.069067
0.0635663
0.0546843
0.0438443
0.0197388
0.0310595
0.0454094
0.0628703
0.0828407
0.104445
0.126308
0.146793
0.164399
0.177708
0.185621
0.187517
0.183337
0.173604
0.159361
0.142051
0.123341
0.104927
0.0883295
0.0747168
0.0647744
0.0586404
0.0559281
0.0558054
0.057157
0.0583312
0.0581427
0.0556914
0.050865
0.0435651
0.0348365
0.0205334
0.0315437
0.0451615
0.0614637
0.0798914
0.0996896
0.119642
0.138305
0.154426
0.166766
0.174357
0.176631
0.173497
0.165359
0.153073
0.137838
0.121065
0.104201
0.0885725
0.075223
0.0648076
0.0575337
0.0531722
0.0511179
0.0505164
0.0500524
0.0487963
0.0460246
0.0415813
0.0353642
0.0280948
0.0232241
0.0341288
0.0468952
0.0614941
0.0773755
0.0938865
0.110029
0.124655
0.136919
0.145916
0.150961
0.151689
0.1481
0.140574
0.12983
0.116841
0.102728
0.0886318
0.0755862
0.0643997
0.0555731
0.049258
0.0452674
0.0431237
0.0421557
0.0413191
0.0399126
0.0373907
0.0335989
0.0284782
0.0224874
0.0251393
0.0353735
0.0464983
0.0583392
0.0703563
0.0820052
0.0925593
0.101245
0.107708
0.111473
0.112243
0.109949
0.104766
0.0971131
0.0876113
0.0770183
0.0661538
0.0558118
0.0466752
0.0392404
0.033768
0.030264
0.0284958
0.0280343
0.0283247
0.0285454
0.0281851
0.0268613
0.0244371
0.0209153
0.0165314
0.0239667
0.0323865
0.0406535
0.0484771
0.0553636
0.060907
0.0646898
0.0663518
0.0660202
0.0636773
0.0594344
0.0535379
0.0463593
0.0383692
0.0300991
0.0220946
0.0148708
0.00886343
0.00438717
0.00160207
0.000499416
0.000906295
0.00250965
0.0048936
0.00758764
0.00997733
0.0117104
0.0125448
0.0123511
0.011183
0.00905929
0.0185024
0.023785
0.0279731
0.030744
0.0317085
0.0306409
0.0274444
0.0221601
0.0153047
0.00726105
-0.00151024
-0.0105035
-0.0192046
-0.0271301
-0.0338613
-0.0390733
-0.0425502
-0.0441962
-0.0440381
-0.0422195
-0.0389844
-0.0346524
-0.0295902
-0.024181
-0.0188001
-0.013833
-0.00948517
-0.00587879
-0.00316671
-0.0012762
-0.000434707
0.00898785
0.0100942
0.00941994
0.00672076
0.00177312
-0.00543238
-0.0146933
-0.0256301
-0.0374915
-0.0496149
-0.0613183
-0.0719586
-0.0809843
-0.0879781
-0.0926821
-0.0950061
-0.0950153
-0.092908
-0.0889841
-0.0836079
-0.0771682
-0.070042
-0.0625684
-0.0550302
-0.047658
-0.0405581
-0.0337813
-0.0273446
-0.0214663
-0.0160989
-0.0117723
-0.00305595
-0.00652064
-0.0120982
-0.0198516
-0.0297955
-0.0417076
-0.0551428
-0.0694869
-0.083934
-0.0977025
-0.110055
-0.120364
-0.128173
-0.133225
-0.135475
-0.135076
-0.132342
-0.127693
-0.121605
-0.114542
-0.106914
-0.0990273
-0.0910812
-0.0831623
-0.0752849
-0.0672158
-0.0588313
-0.0500531
-0.0412093
-0.0323266
-0.0243018
-0.0153994
-0.0230441
-0.032761
-0.0443618
-0.0576416
-0.0721607
-0.0873154
-0.102383
-0.116671
-0.129444
-0.140074
-0.148102
-0.153285
-0.155608
-0.155278
-0.152683
-0.148331
-0.142781
-0.136566
-0.130126
-0.123748
-0.117544
-0.111454
-0.105275
-0.0987364
-0.0912167
-0.0823997
-0.0721218
-0.0608605
-0.0487619
-0.0371409
-0.0258812
-0.0366515
-0.049141
-0.0628851
-0.0774853
-0.0923262
-0.106742
-0.120028
-0.131726
-0.141286
-0.148321
-0.152651
-0.154328
-0.153626
-0.151008
-0.147066
-0.142439
-0.137728
-0.133418
-0.129802
-0.126938
-0.124636
-0.122492
-0.119949
-0.11641
-0.11085
-0.102758
-0.0919014
-0.0789324
-0.0641503
-0.0493045
-0.0331372
-0.0456607
-0.0593588
-0.0735066
-0.0875638
-0.100798
-0.11257
-0.122294
-0.129808
-0.134833
-0.137294
-0.137339
-0.13534
-0.13186
-0.127588
-0.123265
-0.119589
-0.117124
-0.116223
-0.116955
-0.119081
-0.12206
-0.125118
-0.127334
-0.127787
-0.125083
-0.118539
-0.107874
-0.0939202
-0.0771425
-0.0596865
-0.037049
-0.0500933
-0.0637229
-0.076991
-0.0892775
-0.0997859
-0.107969
-0.113415
-0.11626
-0.116512
-0.114411
-0.110422
-0.105205
-0.0995578
-0.0943403
-0.0903769
-0.0883635
-0.0887737
-0.0917848
-0.0972239
-0.104556
-0.112915
-0.121195
-0.128167
-0.132645
-0.132954
-0.128287
-0.118338
-0.10409
-0.0861596
-0.0669833
-0.0387694
-0.0516643
-0.0646465
-0.0765849
-0.0868288
-0.0945483
-0.099309
-0.100884
-0.09965
-0.0958641
-0.0900246
-0.0828399
-0.0751816
-0.0680069
-0.0622701
-0.0588223
-0.0583172
-0.0611227
-0.0672574
-0.0763497
-0.0876423
-0.100039
-0.112217
-0.122752
-0.130301
-0.133047
-0.130121
-0.121215
-0.107396
-0.0893741
-0.0697109
-0.040292
-0.0531718
-0.065825
-0.0769549
-0.0859009
-0.0917936
-0.0942901
-0.0933031
-0.0893732
-0.0829164
-0.0745915
-0.0652492
-0.0558725
-0.0474899
-0.0410838
-0.0374927
-0.037322
-0.0408646
-0.0480484
-0.0584072
-0.0710949
-0.0849417
-0.0985691
-0.110518
-0.11943
-0.123514
-0.12191
-0.114312
-0.101767
-0.0849896
-0.0664448
-0.0437054
-0.0574768
-0.0709269
-0.0825864
-0.0917704
-0.0975278
-0.0995488
-0.0978069
-0.0929183
-0.0853514
-0.0758125
-0.0651849
-0.0544659
-0.04468
-0.036791
-0.0316131
-0.0297319
-0.0314345
-0.0366656
-0.0450065
-0.0556918
-0.0676629
-0.0796728
-0.0904028
-0.0986245
-0.102753
-0.101995
-0.0960381
-0.0857771
-0.0718089
-0.0562647
-0.0503234
-0.0663354
-0.0821271
-0.0960355
-0.107309
-0.114854
-0.118315
-0.117633
-0.113425
-0.10611
-0.0963387
-0.0849327
-0.0728287
-0.0609951
-0.0503569
-0.0417187
-0.0356976
-0.0326631
-0.032698
-0.0355801
-0.0407932
-0.0475676
-0.0549614
-0.0619529
-0.0675687
-0.0705927
-0.0703303
-0.0664426
-0.059537
-0.0499676
-0.039312
-0.060001
-0.0794984
-0.0990071
-0.116657
-0.13158
-0.142488
-0.148906
-0.15066
-0.14832
-0.142174
-0.132743
-0.120727
-0.106952
-0.0923086
-0.0776811
-0.0638922
-0.0516451
-0.0414717
-0.0336948
-0.0284078
-0.0254726
-0.0245395
-0.0250959
-0.0265251
-0.0281927
-0.0293589
-0.0294415
-0.0280484
-0.0253932
-0.0214867
-0.0171984
-0.0710421
-0.0946019
-0.118458
-0.140544
-0.15985
-0.17487
-0.184972
-0.189814
-0.189893
-0.185326
-0.176467
-0.163862
-0.148215
-0.130326
-0.11105
-0.09125
-0.0717492
-0.0532875
-0.0364814
-0.0217974
-0.00953497
0.000179196
0.00737902
0.0122363
0.0150193
0.0159559
0.0155191
0.0141732
0.0121478
0.00982257
0.00709272
-0.0800164
-0.106983
-0.134479
-0.160339
-0.183428
-0.20207
-0.215484
-0.223166
-0.225528
-0.222519
-0.214329
-0.201351
-0.18416
-0.163472
-0.140108
-0.114965
-0.0889781
-0.0630782
-0.0381527
-0.0150121
0.00564342
0.023252
0.0374124
0.0478929
0.0546316
0.0573962
0.0565631
0.0526626
0.0463318
0.0383079
0.0291622
-0.0834978
-0.111911
-0.141034
-0.168696
-0.193712
-0.214346
-0.229735
-0.239261
-0.243254
-0.24153
-0.234144
-0.221357
-0.203623
-0.181565
-0.155953
-0.127676
-0.097723
-0.0671412
-0.0369935
-0.00832343
0.0178892
0.0407736
0.0596142
0.073885
0.08328
0.0872315
0.086033
0.0802423
0.070794
0.0586693
0.044955
-0.0781341
-0.104805
-0.13226
-0.158506
-0.182419
-0.202419
-0.217625
-0.227411
-0.232028
-0.231227
-0.224972
-0.213417
-0.196904
-0.175943
-0.151202
-0.123494
-0.093752
-0.0630032
-0.0323262
-0.00281665
0.0244604
0.0485215
0.0685224
0.0838052
0.0939432
0.0982097
0.0968159
0.0903333
0.0797632
0.0661652
0.0508292
-0.0632886
-0.0849693
-0.107401
-0.128925
-0.148643
-0.165202
-0.177973
-0.186383
-0.190599
-0.190377
-0.185641
-0.176468
-0.163089
-0.145882
-0.125362
-0.102175
-0.077087
-0.0509587
-0.0247118
0.000698916
0.0243286
0.0452868
0.0627935
0.0762239
0.085156
0.0889018
0.0876337
0.0817231
0.0721414
0.0598096
0.0459531
-0.0426245
-0.0572127
-0.0724634
-0.087107
-0.100592
-0.111955
-0.120772
-0.126691
-0.12978
-0.129853
-0.126834
-0.120751
-0.111737
-0.100027
-0.0859549
-0.0699511
-0.0525363
-0.0343046
-0.0159024
0.00199295
0.0187022
0.0335768
0.0460416
0.055628
0.0620126
0.0647064
0.0637635
0.0594197
0.0524326
0.0434215
0.0333756
0.0484761
0.0655375
0.082934
0.0996231
0.114682
0.127
0.13588
0.140704
0.141652
0.138737
0.132289
0.122949
0.111635
0.0994648
0.0876606
0.077422
0.069803
0.0655873
0.0651872
0.068568
0.0752273
0.0842239
0.0942841
0.103932
0.111688
0.115536
0.11448
0.107909
0.0965972
0.0811347
0.0635983
0.0674771
0.0916599
0.116508
0.140653
0.162735
0.181256
0.195057
0.202985
0.205167
0.201485
0.192302
0.178482
0.161347
0.142574
0.124045
0.107649
0.0950869
0.0876666
0.0861366
0.0905545
0.100246
0.113841
0.12943
0.144762
0.15754
0.164568
0.164422
0.15614
0.140605
0.118739
0.0932512
0.0776348
0.10615
0.135914
0.165417
0.192992
0.216878
0.235352
0.246849
0.25121
0.248047
0.237604
0.220803
0.199206
0.174906
0.15033
0.127985
0.11019
0.0988001
0.0949669
0.0989517
0.110052
0.12664
0.146341
0.166299
0.183541
0.193957
0.195525
0.18714
0.169604
0.143994
0.113499
0.0756782
0.104773
0.135922
0.167732
0.198448
0.226061
0.248589
0.264041
0.271751
0.270935
0.261529
0.244287
0.220769
0.193231
0.164418
0.137269
0.114597
0.0987483
0.0913078
0.0928561
0.102858
0.119682
0.140792
0.163029
0.183033
0.196194
0.200105
0.193257
0.176425
0.15062
0.119195
0.0633932
0.0897
0.11895
0.150162
0.181679
0.211504
0.237451
0.257182
0.269402
0.27284
0.266972
0.252171
0.22974
0.201828
0.171223
0.141053
0.114432
0.0940827
0.0819995
0.0791598
0.0853742
0.0992752
0.11849
0.139918
0.160161
0.174562
0.180509
0.176268
0.162369
0.139606
0.111136
0.0463606
0.0682217
0.0939257
0.123021
0.15407
0.185217
0.214186
0.238382
0.255869
0.264882
0.264374
0.254223
0.235307
0.209462
0.1793
0.147919
0.118542
0.094128
0.0770073
0.0685647
0.0690536
0.0775487
0.0920818
0.109892
0.127827
0.141549
0.148439
0.146647
0.136401
0.118189
0.0947592
0.0296003
0.0468348
0.0686437
0.0951039
0.125048
0.15685
0.188239
0.216475
0.239113
0.253979
0.259548
0.255196
0.241314
0.219311
0.191462
0.160653
0.130027
0.102614
0.0809519
0.0667643
0.0607486
0.0624937
0.0705713
0.0827411
0.0963032
0.107486
0.113853
0.113571
0.106567
0.0930257
0.0750939
0.0177206
0.0314708
0.0501894
0.0743488
0.103024
0.134842
0.16762
0.198605
0.225093
0.244681
0.255524
0.256612
0.247911
0.230397
0.205948
0.177117
0.14682
0.117982
0.0931873
0.0743563
0.0625281
0.0577537
0.0591447
0.0650298
0.0732462
0.0806859
0.0852305
0.085186
0.0802476
0.0703614
0.0570617
0.0125573
0.0244066
0.0411409
0.0634215
0.0904939
0.121231
0.153617
0.185037
0.212851
0.234672
0.248576
0.253371
0.248752
0.235348
0.214648
0.188813
0.160411
0.132104
0.106333
0.0850253
0.0693875
0.0597874
0.0557727
0.0561836
0.0593807
0.0629056
0.0650358
0.064313
0.060295
0.0527958
0.0428024
0.0134571
0.0246972
0.0401991
0.0605951
0.0852219
0.113171
0.142677
0.171423
0.197162
0.217784
0.23156
0.237366
0.234825
0.224358
0.20713
0.184899
0.159804
0.134104
0.109918
0.0889803
0.0724521
0.0608228
0.0539075
0.0509261
0.0506755
0.051262
0.0513693
0.0498336
0.0461687
0.0401631
0.0323705
0.0176997
0.028777
0.0429957
0.0607898
0.0815326
0.104513
0.128295
0.15102
0.171086
0.186902
0.197173
0.201072
0.198345
0.189349
0.175007
0.156691
0.136064
0.114882
0.094796
0.0771637
0.0629114
0.052455
0.0456965
0.0420826
0.0407279
0.0401985
0.0395484
0.0379188
0.0348522
0.0301893
0.0241645
0.0216397
0.0319821
0.0439958
0.0578404
0.0729155
0.088703
0.104174
0.118046
0.129505
0.137632
0.141727
0.141418
0.136707
0.127989
0.11601
0.101779
0.0864653
0.0712611
0.0572567
0.0453161
0.0359935
0.0294894
0.0256546
0.0240371
0.0239652
0.024384
0.0246583
0.0242148
0.0226586
0.0199163
0.0159787
0.0220323
0.030286
0.0386211
0.0469491
0.0547322
0.0616613
0.0671676
0.0706107
0.0719604
0.0710134
0.067713
0.0621799
0.0547146
0.0457838
0.0359803
0.0259658
0.0164139
0.00794378
0.00105817
-0.00391004
-0.00682682
-0.00776323
-0.00697941
-0.00488653
-0.00199882
0.000975864
0.00365957
0.00572789
0.00684333
0.0070078
0.00598781
0.0170554
0.0215994
0.0247758
0.0263584
0.0259408
0.0234488
0.0187908
0.0119572
0.00356834
-0.00593975
-0.0160621
-0.0262584
-0.0359929
-0.0447716
-0.0521767
-0.0578947
-0.0617261
-0.0635917
-0.0635309
-0.0616921
-0.0583126
-0.0536926
-0.0481709
-0.0420977
-0.035823
-0.0296839
-0.0238315
-0.0183793
-0.0136451
-0.00959706
-0.00673328
0.00678949
0.0063334
0.00343403
-0.0021202
-0.0105277
-0.0216068
-0.0350054
-0.0501872
-0.0661135
-0.0818855
-0.0966204
-0.10953
-0.119987
-0.127575
-0.132107
-0.133627
-0.132368
-0.128713
-0.123136
-0.116138
-0.108195
-0.0997061
-0.0909759
-0.0822023
-0.0735073
-0.0647912
-0.055981
-0.0470108
-0.038238
-0.0296683
-0.0221484
-0.0069702
-0.0129178
-0.0218621
-0.0338532
-0.0488247
-0.0663381
-0.0856814
-0.105922
-0.125877
-0.144423
-0.160541
-0.173418
-0.182523
-0.187645
-0.188895
-0.186672
-0.181582
-0.174355
-0.165741
-0.156418
-0.146907
-0.137527
-0.128383
-0.119388
-0.11034
-0.100622
-0.0899194
-0.0780149
-0.0653728
-0.0521132
-0.0395339
-0.0214455
-0.0323928
-0.0463351
-0.0630577
-0.0822127
-0.103131
-0.124866
-0.146278
-0.166294
-0.183817
-0.197939
-0.208044
-0.213869
-0.215526
-0.213471
-0.208433
-0.201308
-0.193031
-0.184453
-0.176227
-0.168721
-0.161977
-0.155735
-0.14949
-0.142626
-0.133939
-0.122861
-0.10905
-0.0931416
-0.0754433
-0.0577945
-0.0338924
-0.0485225
-0.0656745
-0.0848288
-0.105384
-0.126492
-0.147117
-0.166102
-0.18268
-0.195988
-0.205431
-0.210756
-0.212091
-0.209936
-0.205097
-0.198582
-0.191467
-0.184751
-0.179218
-0.175315
-0.173083
-0.172137
-0.171728
-0.170845
-0.168398
-0.162583
-0.152583
-0.137964
-0.119585
-0.0979929
-0.0756169
-0.0425716
-0.0591899
-0.0775592
-0.0968694
-0.116329
-0.134976
-0.151818
-0.165842
-0.17669
-0.18387
-0.187209
-0.186904
-0.183517
-0.177934
-0.171268
-0.164721
-0.159442
-0.156366
-0.156077
-0.158699
-0.163844
-0.170626
-0.177761
-0.183719
-0.186952
-0.185103
-0.177145
-0.162596
-0.142554
-0.117831
-0.0914184
-0.0473594
-0.0644894
-0.0825137
-0.100377
-0.117173
-0.131879
-0.143643
-0.151696
-0.156101
-0.156774
-0.153985
-0.148367
-0.14088
-0.13273
-0.125251
-0.119747
-0.117343
-0.118823
-0.12451
-0.134164
-0.146966
-0.161554
-0.176174
-0.188852
-0.197669
-0.19985
-0.194221
-0.180299
-0.159396
-0.13256
-0.103231
-0.0498009
-0.0667332
-0.0838147
-0.0997852
-0.113686
-0.124452
-0.131414
-0.134064
-0.132828
-0.127981
-0.120165
-0.110358
-0.0998139
-0.0899543
-0.0822299
-0.0779634
-0.0781941
-0.0835326
-0.0940514
-0.109209
-0.127851
-0.14828
-0.168424
-0.186034
-0.198976
-0.204261
-0.200654
-0.187702
-0.16685
-0.139304
-0.108737
-0.0525463
-0.0696481
-0.0864026
-0.101355
-0.113515
-0.121759
-0.125566
-0.124639
-0.11966
-0.111149
-0.099987
-0.0873635
-0.0746915
-0.063486
-0.0552239
-0.0511888
-0.0523268
-0.0591153
-0.0714713
-0.0886949
-0.109487
-0.132031
-0.154172
-0.173612
-0.188204
-0.194999
-0.192787
-0.181148
-0.161532
-0.135162
-0.10565
-0.0583491
-0.0770078
-0.0951263
-0.111026
-0.123662
-0.131787
-0.134945
-0.132939
-0.126592
-0.116522
-0.103697
-0.0893668
-0.0749714
-0.0620176
-0.0519451
-0.0459852
-0.0450317
-0.0495271
-0.0593861
-0.0739527
-0.0920231
-0.111927
-0.13169
-0.149218
-0.162554
-0.169066
-0.167625
-0.15783
-0.140961
-0.118077
-0.0923972
-0.0688739
-0.0910347
-0.112739
-0.132032
-0.147753
-0.158455
-0.163626
-0.163031
-0.157541
-0.147726
-0.134498
-0.119039
-0.102714
-0.0869527
-0.0731318
-0.0624541
-0.0558381
-0.0538194
-0.056485
-0.0634373
-0.0738099
-0.0863323
-0.0994599
-0.111524
-0.120941
-0.125633
-0.12459
-0.117377
-0.104932
-0.0879607
-0.0689656
-0.0837586
-0.11117
-0.1384
-0.163174
-0.184152
-0.19962
-0.2089
-0.211596
-0.208556
-0.200192
-0.187257
-0.170779
-0.151982
-0.132184
-0.112706
-0.0947638
-0.0793823
-0.0673091
-0.0589533
-0.0543495
-0.0531572
-0.0546958
-0.0580307
-0.0620744
-0.065735
-0.0676586
-0.0669536
-0.0631
-0.0565508
-0.0475079
-0.0375138
-0.100462
-0.133893
-0.167503
-0.198698
-0.225925
-0.247183
-0.261563
-0.268428
-0.268567
-0.262171
-0.249783
-0.232229
-0.210567
-0.186
-0.159802
-0.133238
-0.107495
-0.0836019
-0.0623723
-0.0443624
-0.029848
-0.0188248
-0.0110432
-0.00605696
-0.00330646
-0.00222167
-0.0020171
-0.00204853
-0.0022115
-0.00213032
-0.00228172
-0.114029
-0.152469
-0.191405
-0.228035
-0.260628
-0.286964
-0.30591
-0.316595
-0.319725
-0.31527
-0.303553
-0.285199
-0.261093
-0.232321
-0.200108
-0.165765
-0.130627
-0.0959896
-0.0630467
-0.0328414
-0.00622251
0.0161886
0.0340111
0.0471034
0.0555404
0.0591773
0.0587086
0.0548986
0.0483751
0.0400478
0.0304226
-0.119664
-0.160332
-0.201742
-0.241035
-0.276411
-0.305569
-0.327253
-0.340429
-0.345702
-0.342867
-0.332062
-0.313726
-0.28858
-0.257576
-0.221863
-0.182741
-0.141622
-0.0999644
-0.0592174
-0.0207663
0.014127
0.0443826
0.0691497
0.0878444
0.100173
0.105453
0.104292
0.0975168
0.0861542
0.0714949
0.054803
-0.112408
-0.150735
-0.189903
-0.227269
-0.261139
-0.289436
-0.31086
-0.324375
-0.330476
-0.328864
-0.319543
-0.302801
-0.279188
-0.249493
-0.214718
-0.176044
-0.134809
-0.0924491
-0.0504469
-0.0102809
0.0266407
0.0590475
0.0858739
0.106316
0.11988
0.125605
0.123983
0.115888
0.102442
0.0850727
0.0653656
-0.0916324
-0.12301
-0.155209
-0.186035
-0.214124
-0.237673
-0.255752
-0.267422
-0.273034
-0.272283
-0.265109
-0.251672
-0.232358
-0.207752
-0.178631
-0.145943
-0.110788
-0.0743782
-0.0379949
-0.00294467
0.029499
0.0581566
0.0820109
0.100265
0.112395
0.117455
0.115858
0.108183
0.0955798
0.0793193
0.0609326
-0.0624308
-0.0838163
-0.105947
-0.12719
-0.146655
-0.163006
-0.175624
-0.183942
-0.188122
-0.187923
-0.183267
-0.174229
-0.161038
-0.144062
-0.12381
-0.100922
-0.0761523
-0.0503511
-0.0244294
0.000669276
0.0240111
0.0447157
0.0620122
0.0752829
0.0841104
0.0878137
0.0865649
0.0807294
0.0712662
0.0590887
0.0454026
0.0515353
0.0698817
0.0887505
0.107003
0.123571
0.137248
0.147037
0.152169
0.152704
0.148587
0.140164
0.128197
0.113823
0.098465
0.0837045
0.0711149
0.062094
0.0576934
0.0584781
0.0644201
0.0748647
0.0885674
0.103829
0.118671
0.131095
0.138416
0.139206
0.132762
0.119924
0.101444
0.0799031
0.0703996
0.0960609
0.12275
0.148991
0.173228
0.193836
0.209187
0.217866
0.219768
0.214616
0.202759
0.185198
0.163556
0.139951
0.1168
0.0965654
0.0814886
0.0733135
0.073057
0.0808283
0.095764
0.116076
0.139242
0.162278
0.182114
0.194538
0.197507
0.189923
0.172671
0.146904
0.115998
0.0788782
0.108637
0.140248
0.172161
0.202463
0.229226
0.250115
0.263183
0.267858
0.263477
0.250178
0.22899
0.201809
0.171259
0.140449
0.112638
0.0908777
0.0776388
0.0744862
0.0818208
0.0987702
0.123233
0.152107
0.18163
0.207859
0.225411
0.231425
0.224641
0.205771
0.176158
0.13973
0.0732386
0.102808
0.135347
0.169515
0.203329
0.234584
0.260598
0.278861
0.28807
0.287
0.275342
0.253862
0.224405
0.189782
0.153495
0.119362
0.0910847
0.0717945
0.0636492
0.0675019
0.0827372
0.107291
0.137883
0.170387
0.200377
0.221855
0.231441
0.227351
0.210202
0.181212
0.144472
0.0558446
0.081443
0.111231
0.144442
0.179249
0.213453
0.244127
0.268283
0.283743
0.288609
0.28193
0.263933
0.236093
0.201048
0.162343
0.124035
0.0902265
0.0645603
0.0497587
0.0472327
0.0568645
0.0769821
0.104566
0.135611
0.165669
0.188732
0.201157
0.200847
0.188066
0.163708
0.131529
0.0332141
0.0530211
0.078233
0.108807
0.14322
0.179437
0.21444
0.244871
0.267681
0.280296
0.281042
0.269462
0.246444
0.21419
0.175992
0.135859
0.0980387
0.0664972
0.0444221
0.0337941
0.0351199
0.0473563
0.0680649
0.0937319
0.120273
0.142154
0.155747
0.158768
0.151077
0.133127
0.108048
0.0112343
0.0250787
0.0453237
0.0726371
0.105863
0.143245
0.181809
0.217978
0.248018
0.268793
0.277978
0.274422
0.258344
0.231349
0.196265
0.1568
0.11709
0.0811909
0.0525801
0.0337097
0.0257074
0.0282521
0.0396668
0.057174
0.077331
0.0954093
0.108059
0.112986
0.109663
0.0981077
0.0806027
-0.00458909
0.00466805
0.0208754
0.0452368
0.0769301
0.114531
0.155208
0.195357
0.230894
0.258366
0.275005
0.279124
0.270348
0.249678
0.219381
0.182697
0.143438
0.105513
0.0724567
0.0469946
0.0307322
0.0239963
0.0258684
0.034372
0.0468224
0.0594265
0.0692998
0.0743112
0.0736437
0.0669838
0.0557662
-0.0118892
-0.00528586
0.00818956
0.0300048
0.059583
0.0958365
0.136179
0.177194
0.214878
0.245792
0.267043
0.276683
0.273939
0.259316
0.234524
0.202247
0.165799
0.128714
0.0943247
0.0653683
0.0436852
0.0300508
0.024164
0.0247712
0.0299299
0.0367616
0.0429576
0.046689
0.0469868
0.0433563
0.0365004
-0.0111614
-0.00553296
0.00617906
0.0254135
0.0517331
0.0843668
0.121067
0.158836
0.194188
0.224049
0.245771
0.257471
0.258246
0.248287
0.228825
0.201966
0.170409
0.137124
0.104993
0.0764816
0.0533818
0.0366494
0.026371
0.0218393
0.021738
0.0239848
0.026865
0.0289446
0.0292351
0.0272151
0.0230336
-0.00531543
0.000144313
0.0102411
0.0261465
0.0474803
0.0737572
0.103168
0.13334
0.161657
0.185733
0.203488
0.213416
0.214749
0.207552
0.192695
0.171723
0.146662
0.119774
0.0932903
0.0691662
0.0488772
0.0332959
0.0226511
0.0165732
0.0142124
0.0141331
0.0151693
0.0163067
0.0166437
0.0157463
0.0133872
0.00156791
0.00658047
0.0143141
0.0255446
0.0399155
0.0572022
0.0761259
0.0950905
0.112557
0.127037
0.137247
0.14227
0.141665
0.135525
0.124449
0.109465
0.0919048
0.0732461
0.0549495
0.0382953
0.0242592
0.0134339
0.00599906
0.00174796
0.000152559
0.000301608
0.00149983
0.0031299
0.00443206
0.00511475
0.00469669
0.00569902
0.00912803
0.0131864
0.0182529
0.0240157
0.0304979
0.0370161
0.0428228
0.0474767
0.0504573
0.0513469
0.0498988
0.0460705
0.0400436
0.0322026
0.0230919
0.0133622
0.00370313
-0.00522817
-0.0128755
-0.018832
-0.022868
-0.0249437
-0.0251948
-0.023914
-0.0215491
-0.0183995
-0.0147382
-0.0111806
-0.00788282
-0.00553649
0.00472209
0.00509326
0.00416136
0.00201482
-0.00155143
-0.00627254
-0.0122156
-0.0193075
-0.0270443
-0.0350677
-0.0430149
-0.0505409
-0.0573463
-0.0631916
-0.0679132
-0.0714282
-0.0737225
-0.0748376
-0.0748536
-0.0738722
-0.0719969
-0.0693152
-0.0658984
-0.0618012
-0.0570881
-0.0517335
-0.0456889
-0.0389449
-0.0320154
-0.0249782
-0.0187748
-0.00171395
-0.00560193
-0.012267
-0.021743
-0.0340508
-0.0486926
-0.0651591
-0.0826817
-0.100094
-0.116379
-0.130617
-0.142074
-0.150271
-0.155023
-0.156437
-0.154876
-0.150893
-0.145145
-0.138299
-0.130947
-0.123533
-0.116303
-0.109307
-0.102416
-0.0954031
-0.0877029
-0.0789351
-0.0688656
-0.0579828
-0.0463761
-0.0353399
-0.0120982
-0.0206944
-0.0328889
-0.0486638
-0.0677947
-0.0895718
-0.113014
-0.136859
-0.159624
-0.179937
-0.196621
-0.208829
-0.216125
-0.218524
-0.216467
-0.210746
-0.202383
-0.192486
-0.182099
-0.17207
-0.16294
-0.154887
-0.14774
-0.141032
-0.134138
-0.125864
-0.115492
-0.102619
-0.0877985
-0.071237
-0.0547176
-0.0237911
-0.036603
-0.0531325
-0.0731774
-0.0962461
-0.121457
-0.147513
-0.172903
-0.196165
-0.215888
-0.230957
-0.240685
-0.244895
-0.243939
-0.238639
-0.230171
-0.2199
-0.209195
-0.199243
-0.190886
-0.1845
-0.179956
-0.176655
-0.173636
-0.169771
-0.163162
-0.152756
-0.13803
-0.119699
-0.0981899
-0.0759027
-0.0340865
-0.0498406
-0.0688279
-0.0905947
-0.114408
-0.139268
-0.163748
-0.186329
-0.205835
-0.221093
-0.231306
-0.236166
-0.235913
-0.231314
-0.223574
-0.214174
-0.20468
-0.196527
-0.190821
-0.188161
-0.18854
-0.19132
-0.195325
-0.198992
-0.20063
-0.19762
-0.188594
-0.17297
-0.151705
-0.125525
-0.0975329
-0.0412551
-0.058358
-0.0778155
-0.098915
-0.120745
-0.142248
-0.16204
-0.178793
-0.191778
-0.200241
-0.20386
-0.202826
-0.197857
-0.190142
-0.181209
-0.172741
-0.166357
-0.163389
-0.164685
-0.170442
-0.180129
-0.192506
-0.205757
-0.217702
-0.226111
-0.2277
-0.220853
-0.20499
-0.181353
-0.151014
-0.117775
-0.0452336
-0.0623885
-0.0808836
-0.0997731
-0.118044
-0.134621
-0.148292
-0.158041
-0.163637
-0.164809
-0.161753
-0.155161
-0.146197
-0.136398
-0.127521
-0.121325
-0.119362
-0.122745
-0.13197
-0.146774
-0.166086
-0.188085
-0.210387
-0.230285
-0.245119
-0.251097
-0.246453
-0.230666
-0.205256
-0.171619
-0.134146
-0.0477242
-0.0645015
-0.0817099
-0.0981907
-0.112888
-0.124711
-0.132675
-0.13611
-0.13523
-0.130211
-0.121697
-0.110791
-0.0989925
-0.0880699
-0.0798837
-0.0761729
-0.0783393
-0.0872403
-0.103029
-0.125039
-0.15177
-0.180977
-0.209887
-0.235469
-0.254819
-0.263882
-0.260858
-0.245317
-0.21898
-0.183482
-0.143562
-0.0516087
-0.068762
-0.0857111
-0.101069
-0.11375
-0.122609
-0.126855
-0.126103
-0.120912
-0.111779
-0.0996559
-0.085908
-0.0722222
-0.0604639
-0.0524945
-0.0499659
-0.0541197
-0.0656024
-0.0843306
-0.109402
-0.139106
-0.171031
-0.20229
-0.229797
-0.250644
-0.26082
-0.258601
-0.243635
-0.217711
-0.182529
-0.14284
-0.0598531
-0.0792372
-0.0981259
-0.114844
-0.128237
-0.13702
-0.140488
-0.138417
-0.131588
-0.120655
-0.106707
-0.0912057
-0.07588
-0.0625796
-0.0531003
-0.0489962
-0.0514018
-0.0608712
-0.077267
-0.099692
-0.126511
-0.155457
-0.183847
-0.208834
-0.227753
-0.236965
-0.234901
-0.221237
-0.197633
-0.165636
-0.129598
-0.0741524
-0.0981866
-0.121752
-0.142801
-0.160029
-0.171913
-0.177685
-0.177118
-0.171114
-0.160314
-0.145787
-0.128945
-0.111448
-0.0950566
-0.0814812
-0.0722151
-0.0683839
-0.0706089
-0.0789121
-0.0926611
-0.110587
-0.130875
-0.15134
-0.169642
-0.183569
-0.190151
-0.188015
-0.17677
-0.157747
-0.1321
-0.103375
-0.0938416
-0.12464
-0.15522
-0.183095
-0.206726
-0.224268
-0.234749
-0.237793
-0.234342
-0.224897
-0.21038
-0.19206
-0.171455
-0.150208
-0.129955
-0.11219
-0.0981387
-0.0886403
-0.0840647
-0.0842611
-0.0885604
-0.0958311
-0.104607
-0.113241
-0.12012
-0.123149
-0.121148
-0.113572
-0.101244
-0.0847245
-0.0664394
-0.115701
-0.154166
-0.192768
-0.228576
-0.25977
-0.28416
-0.300481
-0.308112
-0.307983
-0.300378
-0.286009
-0.265943
-0.241529
-0.214287
-0.185805
-0.157625
-0.131148
-0.107529
-0.0875978
-0.0718034
-0.0601973
-0.052446
-0.0479006
-0.0456846
-0.0448317
-0.0442088
-0.0428069
-0.0398559
-0.0355762
-0.0298248
-0.0237453
-0.13362
-0.178486
-0.223814
-0.266357
-0.304054
-0.334448
-0.355996
-0.367819
-0.370801
-0.364993
-0.350883
-0.329325
-0.301487
-0.268761
-0.232683
-0.194847
-0.156826
-0.120084
-0.0858918
-0.0552781
-0.0289785
-0.00741279
0.00930264
0.0213258
0.0290269
0.0326452
0.0330462
0.0312212
0.0275383
0.0228081
0.0171146
-0.141823
-0.189747
-0.238389
-0.284383
-0.325563
-0.359363
-0.384079
-0.398651
-0.403874
-0.39961
-0.386139
-0.364114
-0.334512
-0.298579
-0.257759
-0.213638
-0.167878
-0.122143
-0.0780169
-0.0369509
-0.000195669
0.031254
0.0566888
0.0757058
0.088205
0.0937285
0.0930116
0.0871842
0.0770883
0.0640343
0.0490799
-0.134251
-0.179729
-0.226022
-0.270008
-0.309627
-0.342553
-0.367041
-0.382013
-0.388145
-0.385182
-0.373247
-0.352802
-0.324622
-0.289747
-0.249445
-0.20516
-0.158473
-0.111032
-0.064487
-0.0204332
0.0196607
0.0545233
0.0831352
0.10478
0.119073
0.125152
0.123602
0.115633
0.102243
0.0849686
0.0653173
-0.109976
-0.14741
-0.185653
-0.222091
-0.255071
-0.282561
-0.303291
-0.31626
-0.321967
-0.32013
-0.310772
-0.294185
-0.270923
-0.241766
-0.207702
-0.169888
-0.129632
-0.0883339
-0.0474349
-0.00837027
0.0274955
0.0589338
0.0849162
0.104669
0.117719
0.123136
0.121404
0.113389
0.100177
0.0831565
0.0638832
-0.0753793
-0.101068
-0.127516
-0.152781
-0.175781
-0.194985
-0.209549
-0.218872
-0.223202
-0.222305
-0.216153
-0.204899
-0.18888
-0.168594
-0.144688
-0.117948
-0.089275
-0.0596584
-0.0301357
-0.00175961
0.0244475
0.0475432
0.066719
0.0813463
0.0910186
0.0950364
0.0936085
0.0872929
0.0770483
0.0638985
0.0490876
0.0432901
0.0591195
0.0756679
0.0918656
0.106704
0.118968
0.127618
0.131775
0.131286
0.126001
0.116225
0.102742
0.0867834
0.0699368
0.0539943
0.040765
0.0318703
0.0285406
0.031444
0.0405561
0.0551131
0.0736521
0.0941648
0.114303
0.131679
0.143155
0.147002
0.142284
0.129943
0.11078
0.0877441
0.0575925
0.079417
0.102642
0.125929
0.147792
0.166548
0.180509
0.18809