# vtk DataFile Version 2.0
Func
ASCII
DATASET RECTILINEAR_GRID
DIMENSIONS 31 31 31
X_COORDINATES 31 double
-9.67742
-9.03226
-8.3871
-7.74194
-7.09677
-6.45161
-5.80645
-5.16129
-4.51613
-3.87097
-3.22581
-2.58065
-1.93548
-1.29032
-0.645161
0
0.645161
1.29032
1.93548
2.58065
3.22581
3.87097
4.51613
5.16129
5.80645
6.45161
7.09677
7.74194
8.3871
9.03226
9.67742
Y_COORDINATES 31 double
-9.67742
-9.03226
-8.3871
-7.74194
-7.09677
-6.45161
-5.80645
-5.16129
-4.51613
-3.87097
-3.22581
-2.58065
-1.93548
-1.29032
-0.645161
0
0.645161
1.29032
1.93548
2.58065
3.22581
3.87097
4.51613
5.16129
5.80645
6.45161
7.09677
7.74194
8.3871
9.03226
9.67742
Z_COORDINATES 31 double
-9.67742
-9.03226
-8.3871
-7.74194
-7.09677
-6.45161
-5.80645
-5.16129
-4.51613
-3.87097
-3.22581
-2.58065
-1.93548
-1.29032
-0.645161
0
0.645161
1.29032
1.93548
2.58065
3.22581
3.87097
4.51613
5.16129
5.80645
6.45161
7.09677
7.74194
8.3871
9.03226
9.67742
POINT_DATA 29791
SCALARS data double 1
LOOKUP_TABLE default
0.0473169
0.0609996
0.0735051
0.083082
0.0890636
0.0904959
0.0873581
0.0799408
0.0692674
0.0561308
0.0415013
0.0264241
0.0119394
-0.00100741
-0.0116316
-0.0193609
-0.0238651
-0.0250732
-0.023169
-0.0185709
-0.0118906
-0.00387893
0.00464614
0.012868
0.0200489
0.0253675
0.0284183
0.0290023
0.0273965
0.0238746
0.0191169
0.0689718
0.0887432
0.106364
0.119524
0.127135
0.127904
0.121802
0.109207
0.091733
0.0706158
0.0473541
0.0235591
0.000829974
-0.0193822
-0.0358747
-0.0477737
-0.0545785
-0.0561869
-0.0528873
-0.0453271
-0.0344485
-0.021405
-0.00745313
0.00615338
0.0182769
0.0276569
0.0337008
0.0360947
0.0351506
0.0312941
0.0253847
0.0827283
0.105999
0.126277
0.140797
0.148206
0.147055
0.137184
0.119179
0.0950911
0.0665306
0.035434
0.00387887
-0.0260787
-0.0525741
-0.0740652
-0.089434
-0.0980432
-0.0997672
-0.0949818
-0.0845222
-0.0696014
-0.051701
-0.0324364
-0.0134206
0.00387604
0.0178726
0.027748
0.0331433
0.0343092
0.0317318
0.0263828
0.0844251
0.107587
0.127182
0.140241
0.14536
0.140981
0.127054
0.104289
0.0749418
0.0408506
0.00421047
-0.0326335
-0.0673661
-0.097891
-0.122477
-0.139872
-0.149364
-0.150818
-0.144662
-0.131838
-0.113712
-0.091954
-0.0683825
-0.0448203
-0.0229367
-0.00445233
0.00966762
0.0189301
0.0235147
0.0238643
0.0209333
0.0748511
0.0944598
0.110264
0.119408
0.12059
0.112382
0.0948144
0.0686806
0.0362081
-0.000715676
-0.039851
-0.078815
-0.11526
-0.147066
-0.17248
-0.190238
-0.199624
-0.200503
-0.193313
-0.17901
-0.15898
-0.134915
-0.108663
-0.0820827
-0.0568856
-0.0347555
-0.0167293
-0.0033762
0.00532311
0.00970388
0.0105564
0.0581738
0.0722263
0.0825729
0.0866684
0.0834325
0.0716867
0.0515507
0.0238432
-0.00942911
-0.0464802
-0.0852057
-0.123374
-0.158792
-0.189479
-0.213801
-0.230573
-0.239126
-0.239332
-0.231599
-0.216819
-0.196286
-0.171582
-0.144443
-0.116619
-0.08974
-0.0653217
-0.0443974
-0.0275817
-0.0150351
-0.00656459
-0.00162366
0.0386891
0.046679
0.0512747
0.0504379
0.0433586
0.029162
0.00803908
-0.0192332
-0.0509986
-0.0856925
-0.121482
-0.156429
-0.188628
-0.216355
-0.238185
-0.253077
-0.260436
-0.260137
-0.252521
-0.238353
-0.21875
-0.195087
-0.168882
-0.141675
-0.11492
-0.0898907
-0.0675514
-0.0485254
-0.0331446
-0.0213561
-0.012928
0.02085
0.0236339
0.0234958
0.0189647
0.00948442
-0.00553219
-0.0258674
-0.0508498
-0.0792291
-0.109735
-0.140884
-0.171103
-0.198838
-0.222675
-0.241428
-0.254219
-0.260525
-0.260207
-0.253504
-0.241011
-0.223619
-0.20244
-0.178718
-0.153737
-0.128727
-0.104703
-0.082524
-0.0627907
-0.0459767
-0.0321457
-0.0213877
0.00719765
0.00639271
0.00322728
-0.00321619
-0.0132979
-0.0273794
-0.0452706
-0.066466
-0.0901257
-0.115312
-0.140921
-0.165767
-0.18866
-0.208493
-0.224313
-0.235383
-0.241227
-0.241657
-0.236781
-0.226989
-0.212914
-0.195384
-0.175351
-0.153825
-0.131802
-0.110064
-0.0893454
-0.0702134
-0.0532524
-0.0386171
-0.0267013
-0.00130165
-0.00386215
-0.00818575
-0.0147081
-0.0236698
-0.0352863
-0.0494572
-0.065889
-0.084126
-0.103573
-0.123505
-0.143106
-0.161523
-0.177922
-0.191541
-0.201739
-0.20804
-0.210169
-0.208065
-0.201889
-0.192003
-0.178942
-0.163372
-0.146041
-0.127728
-0.10902
-0.0905377
-0.0728183
-0.0565411
-0.0419387
-0.0296742
-0.00521155
-0.00796968
-0.0118872
-0.0170156
-0.0235454
-0.0316239
-0.0412909
-0.0524995
-0.0651428
-0.0789641
-0.0935947
-0.108559
-0.123299
-0.1372
-0.149636
-0.160008
-0.167793
-0.172581
-0.174111
-0.17229
-0.167203
-0.159095
-0.148363
-0.135513
-0.121138
-0.105664
-0.0896324
-0.073566
-0.0582387
-0.0439675
-0.031645
-0.00602904
-0.00799052
-0.0105131
-0.0133584
-0.0167154
-0.0207177
-0.0255817
-0.0315267
-0.0387643
-0.0473651
-0.0572943
-0.0683822
-0.0803198
-0.0926684
-0.104887
-0.116371
-0.126504
-0.134705
-0.140487
-0.143489
-0.14351
-0.140518
-0.134655
-0.126215
-0.115631
-0.1032
-0.089415
-0.0748132
-0.060272
-0.0462101
-0.0337101
-0.00548507
-0.00627746
-0.00704296
-0.00732911
-0.00734486
-0.00723532
-0.0074097
-0.00835674
-0.0105836
-0.0144731
-0.0203005
-0.0281719
-0.037995
-0.0494695
-0.062105
-0.0752595
-0.088195
-0.100143
-0.110375
-0.11826
-0.123321
-0.125262
-0.123992
-0.119618
-0.112443
-0.102654
-0.0907301
-0.0772437
-0.0631812
-0.0490789
-0.0361617
-0.00499663
-0.00475516
-0.00392287
-0.0018853
0.00113008
0.00496744
0.00903187
0.0125806
0.0148339
0.0151208
0.0128842
0.00777078
-0.000316688
-0.0111925
-0.0243982
-0.0392421
-0.0548625
-0.0703061
-0.0846159
-0.096913
-0.106468
-0.112752
-0.115475
-0.114589
-0.110293
-0.102692
-0.0922735
-0.0796551
-0.0659179
-0.0517146
-0.0383473
-0.0053343
-0.0044895
-0.00254483
0.00124028
0.00663566
0.0134917
0.0210565
0.0283717
0.0344191
0.0382819
0.0391623
0.0364977
0.030031
0.0198527
0.00639628
-0.00960332
-0.0271796
-0.0452264
-0.0626017
-0.078227
-0.0911767
-0.100745
-0.106495
-0.108273
-0.106206
-0.100358
-0.0912361
-0.0795028
-0.0662872
-0.0523295
-0.0389168
-0.00656228
-0.00560931
-0.00315029
0.00165114
0.00858078
0.017516
0.0275956
0.0377061
0.0466486
0.053326
0.0567648
0.0562486
0.0514029
0.0422475
0.0291946
0.0130052
-0.00528784
-0.0244823
-0.0433226
-0.0606128
-0.0753181
-0.0866417
-0.0940797
-0.0974369
-0.0968208
-0.0923089
-0.0844393
-0.0739004
-0.0617931
-0.0488861
-0.03633
-0.00820236
-0.00751615
-0.00507495
2.05978e-05
0.00758434
0.0175355
0.0289626
0.0406772
0.0513835
0.0598952
0.0651515
0.0663607
0.0630906
0.0553259
0.0434655
0.0282749
0.0108037
-0.00772384
-0.0260326
-0.0429165
-0.0573448
-0.0685421
-0.0760392
-0.0796848
-0.0796277
-0.0760362
-0.0694848
-0.0606606
-0.050537
-0.0398293
-0.0294115
-0.00956591
-0.00931085
-0.00725183
-0.00246233
0.00490049
0.0148018
0.0263433
0.0383509
0.0495359
0.0587293
0.0648892
0.0672419
0.0653713
0.0592724
0.0493435
0.0363345
0.0212594
0.00528309
-0.0104026
-0.0246997
-0.0367069
-0.0457929
-0.0516347
-0.0542176
-0.053798
-0.0507176
-0.0455916
-0.0390749
-0.0319069
-0.0246592
-0.0177907
-0.0101665
-0.0103293
-0.00885208
-0.00481201
0.0016547
0.0105551
0.0210639
0.032107
0.0425098
0.0512268
0.0573397
0.0601866
0.0594405
0.055152
0.0477333
0.0379
0.0265809
0.0148059
0.00358668
-0.00619644
-0.0138862
-0.0191072
-0.0217823
-0.0221145
-0.020525
-0.0175988
-0.0139918
-0.0102963
-0.00692556
-0.00422608
-0.00213249
-0.0100947
-0.0106379
-0.00989046
-0.00694547
-0.00192683
0.00521118
0.0137664
0.0228339
0.0314397
0.038747
0.0440427
0.0468484
0.0469801
0.0445751
0.0400651
0.0341117
0.027516
0.0211116
0.0156557
0.0117296
0.00966473
0.0095051
0.0110171
0.013731
0.0170294
0.0200487
0.0221005
0.0226811
0.0217616
0.019276
0.0158661
-0.0102149
-0.0113066
-0.0115756
-0.0101124
-0.00702578
-0.00222111
0.00375957
0.0102229
0.016441
0.0218306
0.0259233
0.0284538
0.0293977
0.0289815
0.0276435
0.0259667
0.0245897
0.0241097
0.0249883
0.0274697
0.0315285
0.0368555
0.0428953
0.0489109
0.0540958
0.0573233
0.057893
0.0554077
0.0502335
0.0426002
0.0337037
-0.0120424
-0.0142663
-0.0161622
-0.0167648
-0.0161426
-0.0141192
-0.0110525
-0.00741089
-0.00368692
-0.000214267
0.00276958
0.00518992
0.00715265
0.00893832
0.0109569
0.0136793
0.0175553
0.0229293
0.0299637
0.0385768
0.0484126
0.0588483
0.0690557
0.078083
0.0849852
0.0884443
0.0877801
0.0827111
0.0739535
0.0620027
0.0485089
-0.0172712
-0.0217035
-0.0262361
-0.0297673
-0.0322756
-0.0334443
-0.0334356
-0.0325054
-0.0309768
-0.028984
-0.0265967
-0.0237699
-0.0203402
-0.01604
-0.0105438
-0.00353166
0.00523975
0.0158679
0.0282475
0.0420267
0.0565962
0.0711128
0.0845756
0.0959171
0.104139
0.107852
0.106435
0.0997219
0.0886823
0.0740041
0.0576287
-0.027008
-0.0350527
-0.0434884
-0.0509928
-0.0573865
-0.0621431
-0.0652253
-0.0667075
-0.0668478
-0.065662
-0.0631474
-0.0592399
-0.0538159
-0.0467054
-0.0377312
-0.0267615
-0.0137665
0.00113029
0.017613
0.0351467
0.0529791
0.0701725
0.0856839
0.0984528
0.107531
0.111603
0.110146
0.103093
0.0915395
0.0762614
0.0592934
-0.0409862
-0.053955
-0.0674373
-0.0798326
-0.0907387
-0.0993578
-0.105465
-0.108991
-0.110242
-0.109204
-0.105903
-0.100357
-0.0925768
-0.0825676
-0.0703538
-0.0560153
-0.0397274
-0.0217938
-0.0026691
0.0170269
0.0365178
0.0549023
0.0712253
0.0845534
0.0940855
0.0987183
0.0980521
0.0921003
0.0819421
0.0683266
0.0531866
-0.0572781
-0.0758532
-0.0949159
-0.112577
-0.128176
-0.140618
-0.149517
-0.154698
-0.156604
-0.155267
-0.150817
-0.14343
-0.133314
-0.120696
-0.105824
-0.0889914
-0.0705503
-0.0509334
-0.0306609
-0.0103467
0.00931118
0.0275546
0.0436186
0.0567862
0.0664709
0.0718832
0.0727554
0.0691532
0.0620144
0.0519633
0.0406694
-0.0718707
-0.0954672
-0.1194
-0.141594
-0.161152
-0.176725
-0.187808
-0.194167
-0.196408
-0.194647
-0.189148
-0.180266
-0.168413
-0.15403
-0.137569
-0.119496
-0.100292
-0.0804597
-0.0605184
-0.0410075
-0.0224797
-0.0054884
0.00944363
0.0218544
0.031395
0.0376257
0.0404
0.0398076
0.0365627
0.0311019
0.0247422
-0.0804999
-0.107054
-0.133807
-0.158601
-0.180392
-0.197686
-0.209927
-0.216861
-0.219217
-0.217193
-0.211168
-0.201633
-0.189156
-0.174327
-0.157734
-0.139947
-0.121509
-0.102927
-0.0846718
-0.0671678
-0.0507988
-0.035904
-0.0227682
-0.0116141
-0.00257799
0.00421546
0.00871393
0.0110087
0.0115614
0.0106084
0.00907751
-0.078868
-0.104844
-0.13095
-0.155141
-0.176359
-0.193196
-0.205072
-0.211757
-0.214009
-0.212066
-0.206349
-0.197398
-0.185824
-0.17226
-0.157319
-0.141577
-0.125556
-0.10971
-0.094419
-0.0799855
-0.0666383
-0.0545395
-0.0437895
-0.0344342
-0.026462
-0.0197779
-0.0143739
-0.0101896
-0.00697426
-0.00466015
-0.00267833
-0.0658049
-0.0874929
-0.109312
-0.129523
-0.147248
-0.161232
-0.171119
-0.176688
-0.178591
-0.177049
-0.172443
-0.165252
-0.156016
-0.145285
-0.133588
-0.121411
-0.109177
-0.097238
-0.0858667
-0.0752523
-0.0655081
-0.0566803
-0.0487606
-0.0417004
-0.0354177
-0.0297246
-0.0245994
-0.0199741
-0.0157773
-0.0120374
-0.00846429
-0.0451388
-0.0599685
-0.075019
-0.088924
-0.101145
-0.110768
-0.117561
-0.121434
-0.122813
-0.121859
-0.118845
-0.114111
-0.108037
-0.10101
-0.0933957
-0.0855248
-0.0776816
-0.0700929
-0.0629237
-0.0562755
-0.0501912
-0.0446638
-0.0396487
-0.0350757
-0.0308594
-0.0268322
-0.0229552
-0.0191901
-0.0155566
-0.0121003
-0.00872976
0.0685799
0.0883303
0.106021
0.119376
0.127321
0.128571
0.123101
0.111277
0.0946822
0.0745204
0.0522514
0.0294431
0.00764962
-0.0117217
-0.0275077
-0.0388671
-0.0453235
-0.046788
-0.0435515
-0.0362528
-0.0258155
-0.0133658
-0.000126871
0.0126847
0.0239693
0.0324942
0.0376986
0.0392984
0.0376294
0.033124
0.0266706
0.0987211
0.126863
0.151495
0.169534
0.179342
0.179269
0.169256
0.149712
0.123117
0.091316
0.0565275
0.0211298
-0.0125268
-0.0423155
-0.0664805
-0.0837573
-0.0934333
-0.095382
-0.0900494
-0.0784055
-0.0618471
-0.0420726
-0.0209267
-0.000245089
0.0183071
0.0328623
0.0426362
0.0471934
0.0468602
0.0422561
0.0345287
0.117569
0.150394
0.178484
0.198128
0.207314
0.204237
0.18863
0.161177
0.124998
0.082473
0.0364431
-0.0100538
-0.0540236
-0.0927584
-0.124028
-0.146228
-0.158458
-0.160566
-0.153122
-0.137362
-0.115063
-0.0883806
-0.0596589
-0.031232
-0.00522681
0.0160498
0.0314987
0.0406301
0.0436517
0.0412565
0.0347305
0.119526
0.152008
0.178953
0.196389
0.202214
0.19446
0.173041
0.138811
0.095178
0.0448371
-0.00901083
-0.0629577
-0.113653
-0.158071
-0.193725
-0.218827
-0.232379
-0.234213
-0.224972
-0.206036
-0.179387
-0.147427
-0.112772
-0.0780345
-0.0456045
-0.0179558
0.00360759
0.0183903
0.0265065
0.0285813
0.025849
0.105554
0.132927
0.15446
0.166367
0.166697
0.153645
0.127248
0.0884939
0.0407163
-0.013335
-0.0704178
-0.127093
-0.179988
-0.226061
-0.262814
-0.288455
-0.301981
-0.303226
-0.292833
-0.272187
-0.24327
-0.208492
-0.170478
-0.131858
-0.0950575
-0.0624512
-0.0354521
-0.0148741
-0.000815493
0.00717989
0.0100811
0.081899
0.101515
0.11548
0.120483
0.114891
0.0971989
0.0675845
0.0270932
-0.021301
-0.0750181
-0.131037
-0.186163
-0.237268
-0.281536
-0.316651
-0.340947
-0.35349
-0.354115
-0.343409
-0.322638
-0.293626
-0.258591
-0.219962
-0.180184
-0.141529
-0.106087
-0.0752755
-0.0499829
-0.0305379
-0.0167036
-0.00788824
0.0545416
0.0657797
0.0719155
0.0703503
0.0598457
0.0392669
0.00889581
-0.0302609
-0.0757826
-0.125438
-0.17663
-0.226616
-0.272709
-0.312487
-0.343949
-0.365644
-0.376741
-0.377068
-0.367097
-0.347883
-0.320961
-0.288216
-0.251724
-0.213596
-0.17582
-0.140091
-0.10774
-0.0796703
-0.0564297
-0.0380016
-0.0242448
0.0296926
0.0338336
0.0336757
0.0273989
0.014139
-0.0068867
-0.0353652
-0.070428
-0.110289
-0.153175
-0.197027
-0.239661
-0.278926
-0.312864
-0.339838
-0.358631
-0.368513
-0.369272
-0.361216
-0.345121
-0.322163
-0.293814
-0.261722
-0.22759
-0.193058
-0.15942
-0.127853
-0.0992283
-0.0742802
-0.0531789
-0.0362257
0.0107355
0.0100499
0.00601281
-0.00245157
-0.015912
-0.0348716
-0.0590739
-0.0878864
-0.120162
-0.154645
-0.189859
-0.224211
-0.256102
-0.28404
-0.306732
-0.323166
-0.33267
-0.334947
-0.330087
-0.318544
-0.301091
-0.278754
-0.252729
-0.224297
-0.19474
-0.16499
-0.136049
-0.108733
-0.083929
-0.0619576
-0.0435221
-0.00128545
-0.00433362
-0.00972955
-0.0179072
-0.0292429
-0.0440529
-0.0622309
-0.083459
-0.107191
-0.132704
-0.159104
-0.185369
-0.210415
-0.23316
-0.252597
-0.267852
-0.278245
-0.283334
-0.282941
-0.27716
-0.266342
-0.251064
-0.232082
-0.210276
-0.1866
-0.161689
-0.136386
-0.111457
-0.087923
-0.0662395
-0.0474577
-0.00747032
-0.0109048
-0.0156787
-0.021708
-0.0292695
-0.0385811
-0.0497592
-0.0628589
-0.0778865
-0.0946483
-0.112805
-0.131864
-0.151192
-0.170051
-0.187639
-0.203144
-0.215804
-0.224968
-0.230144
-0.231035
-0.227563
-0.219862
-0.208278
-0.193329
-0.175685
-0.155743
-0.134235
-0.111906
-0.0899159
-0.0688578
-0.0500831
-0.0101311
-0.0128311
-0.0158811
-0.0187855
-0.0217842
-0.0250542
-0.0289817
-0.0340281
-0.0407141
-0.0493608
-0.0601547
-0.0730838
-0.0879121
-0.104176
-0.121212
-0.1382
-0.154238
-0.168413
-0.179882
-0.187938
-0.192069
-0.191987
-0.187653
-0.179266
-0.167261
-0.15184
-0.133677
-0.113541
-0.0927415
-0.0720308
-0.0530195
-0.0117227
-0.0134438
-0.014556
-0.0142272
-0.0126844
-0.0100859
-0.0071012
-0.00460404
-0.00360255
-0.00491187
-0.00921232
-0.0169338
-0.0281913
-0.0427496
-0.0600336
-0.0791764
-0.0990964
-0.118595
-0.136465
-0.151591
-0.16304
-0.170126
-0.172461
-0.169969
-0.162889
-0.151265
-0.135762
-0.117209
-0.0970679
-0.0762685
-0.0566302
-0.0140447
-0.0151929
-0.014827
-0.0118233
-0.00638944
0.00134349
0.0104422
0.0196472
0.0274914
0.0327018
0.034145
0.0309896
0.0228074
0.00963799
-0.00800986
-0.0292064
-0.0526906
-0.0769889
-0.100553
-0.121892
-0.139696
-0.15293
-0.160911
-0.163335
-0.160292
-0.151707
-0.138268
-0.120884
-0.101143
-0.0801427
-0.0598337
-0.0177979
-0.0190758
-0.0180352
-0.0132949
-0.0050205
0.00670849
0.020745
0.035505
0.0491144
0.0599078
0.0663633
0.0673063
0.0620409
0.0504402
0.0329566
0.0105719
-0.0153051
-0.0429769
-0.0706211
-0.0964509
-0.118865
-0.13657
-0.148668
-0.154703
-0.154669
-0.148435
-0.136729
-0.120533
-0.101497
-0.0808343
-0.0605006
-0.0225702
-0.0246194
-0.0237189
-0.0182729
-0.00838399
0.00594347
0.0234216
0.042238
0.0602045
0.0753688
0.0859239
0.0904422
0.0880302
0.0784357
0.0620643
0.0399248
0.0135165
-0.0153264
-0.0446178
-0.0724019
-0.0969223
-0.116758
-0.130925
-0.138913
-0.140701
-0.136196
-0.126171
-0.111654
-0.0942431
-0.0751733
-0.0562314
-0.0271673
-0.0303049
-0.0301143
-0.024852
-0.0145512
0.000868833
0.0200654
0.0411207
0.0616738
0.0796307
0.093044
0.100362
0.100594
0.0934251
0.0792334
0.0590273
0.0343242
0.0069836
-0.0209882
-0.0476314
-0.07121
-0.0903506
-0.104137
-0.112144
-0.114426
-0.111056
-0.102854
-0.090842
-0.0764318
-0.0607493
-0.0452003
-0.0301892
-0.0343075
-0.0350327
-0.0305622
-0.0208739
-0.00580943
0.0133203
0.0346287
0.0557583
0.0746459
0.0893758
0.0984279
0.100839
0.0963145
0.0852317
0.0685759
0.047808
0.0246919
0.00109777
-0.021192
-0.0406546
-0.0561545
-0.0670178
-0.0730462
-0.074476
-0.07168
-0.0655235
-0.0569695
-0.0470945
-0.0367753
-0.0268214
-0.0307122
-0.0353794
-0.0369173
-0.0335567
-0.0252483
-0.0117767
0.0056574
0.0253278
0.0450652
0.0630085
0.0774466
0.0870472
0.0910009
0.0891125
0.0817944
0.069988
0.0550278
0.03847
0.0219027
0.00676293
-0.00581637
-0.0151101
-0.0208418
-0.0231665
-0.0225919
-0.0199068
-0.0160136
-0.0117642
-0.00777104
-0.00453715
-0.00210096
-0.0288858
-0.0336378
-0.0358063
-0.0337239
-0.027341
-0.016404
-0.00194031
0.0145879
0.0313531
0.0468344
0.0596619
0.0688137
0.0737287
0.074372
0.0712083
0.0651134
0.0572364
0.0488355
0.0411048
0.035012
0.0311741
0.0297884
0.0306337
0.0331244
0.0364322
0.0392926
0.0407827
0.0402057
0.037495
0.032605
0.0263598
-0.026231
-0.0309757
-0.033861
-0.0333361
-0.0293578
-0.0216314
-0.0109657
0.00150654
0.0143843
0.026563
0.0370836
0.0452897
0.050905
0.054067
0.055282
0.0553279
0.0551198
0.0555596
0.0573861
0.0610395
0.0665734
0.0736234
0.0814531
0.0890445
0.0952597
0.098381
0.0974959
0.0920917
0.0826638
0.069645
0.0547
-0.0254172
-0.0308007
-0.0350881
-0.0367916
-0.0358425
-0.0318689
-0.0254291
-0.0173029
-0.00847253
0.000372339
0.00866869
0.0160977
0.0226286
0.0285245
0.0342833
0.0405381
0.0479323
0.0569876
0.0679832
0.0808499
0.0951185
0.109924
0.124089
0.136246
0.145024
0.148368
0.14542
0.13586
0.120689
0.100766
0.0784533
-0.0294858
-0.0370388
-0.04416
-0.0493082
-0.0523144
-0.0526552
-0.0506187
-0.0466428
-0.0413923
-0.0352166
-0.0283774
-0.0209619
-0.0128647
-0.00379851
0.00664178
0.0188857
0.0332776
0.0499697
0.0688292
0.0893643
0.110702
0.131621
0.150659
0.166251
0.176927
0.180487
0.176174
0.163859
0.144911
0.120503
0.0934503
-0.0406031
-0.0524993
-0.0644265
-0.0746432
-0.0827757
-0.0880564
-0.0904881
-0.090204
-0.0877194
-0.0831688
-0.0766595
-0.0682034
-0.0577097
-0.0449987
-0.0298587
-0.0121225
0.00824363
0.0310603
0.0558715
0.0818961
0.108029
0.132887
0.154924
0.17257
0.184417
0.188356
0.183777
0.170705
0.150707
0.125099
0.0968519
-0.0587977
-0.0772064
-0.0958657
-0.112708
-0.127051
-0.137798
-0.144672
-0.147546
-0.146975
-0.143018
-0.135785
-0.125375
-0.111862
-0.0952979
-0.0757506
-0.0533562
-0.0283815
-0.00127614
0.0272893
0.056397
0.084893
0.111435
0.134599
0.152993
0.165424
0.170103
0.166588
0.155018
0.136962
0.113697
0.0880456
-0.0814214
-0.107654
-0.134143
-0.158432
-0.179472
-0.195798
-0.206873
-0.212371
-0.213033
-0.208961
-0.200395
-0.187641
-0.171042
-0.150961
-0.127791
-0.101973
-0.0740374
-0.0446283
-0.0145185
0.0153773
0.0440159
0.0702631
0.0929743
0.111078
0.123701
0.129547
0.12834
0.12028
0.106763
0.0888729
0.0690296
-0.102539
-0.136024
-0.16961
-0.200543
-0.227432
-0.248498
-0.262999
-0.270476
-0.271913
-0.267519
-0.257719
-0.243064
-0.224189
-0.201765
-0.17648
-0.149032
-0.120144
-0.0905635
-0.0610659
-0.0324571
-0.00556458
0.0187824
0.0398014
0.0568043
0.0692745
0.0764714
0.0782653
0.0748639
0.0673713
0.0565756
0.0443535
-0.115781
-0.153801
-0.191772
-0.226783
-0.257227
-0.281137
-0.297672
-0.306308
-0.308222
-0.303734
-0.293428
-0.278056
-0.258473
-0.235572
-0.210244
-0.183342
-0.155682
-0.128023
-0.101067
-0.0754516
-0.0517493
-0.0304676
-0.0120301
0.00323658
0.0151374
0.0234392
0.0281158
0.0293498
0.0279015
0.0242384
0.0196445
-0.114319
-0.151867
-0.189286
-0.223803
-0.253803
-0.277447
-0.29383
-0.302457
-0.30455
-0.300482
-0.290896
-0.276611
-0.258552
-0.237671
-0.2149
-0.191103
-0.167067
-0.143474
-0.120893
-0.0997773
-0.080468
-0.0632053
-0.0481335
-0.0353125
-0.0247132
-0.0162096
-0.00976836
-0.00527885
-0.00227536
-0.000565105
0.000600111
-0.0963647
-0.128087
-0.15972
-0.188908
-0.214298
-0.234217
-0.248101
-0.255481
-0.257412
-0.254242
-0.246551
-0.235072
-0.220623
-0.20404
-0.186131
-0.167628
-0.149176
-0.131309
-0.114435
-0.0988392
-0.0846899
-0.0720526
-0.0609081
-0.0511733
-0.0427137
-0.0352437
-0.0287295
-0.0230614
-0.0180473
-0.0136663
-0.00957166
-0.0670885
-0.0891381
-0.111277
-0.131704
-0.149528
-0.163472
-0.173175
-0.17843
-0.179925
-0.177915
-0.172821
-0.165169
-0.155545
-0.144542
-0.132726
-0.120605
-0.108616
-0.0971087
-0.0863339
-0.076446
-0.0675089
-0.0595088
-0.0523723
-0.0459856
-0.0402109
-0.0347883
-0.029657
-0.0247562
-0.0200586
-0.0156016
-0.0113043
0.0819446
0.105303
0.125973
0.141264
0.149876
0.150383
0.142627
0.12716
0.10594
0.0804757
0.0525805
0.0241944
-0.00277055
-0.0265902
-0.0458501
-0.0595386
-0.0670963
-0.0684415
-0.0639577
-0.054451
-0.0410718
-0.0252104
-0.00836956
0.00796228
0.0224427
0.0335856
0.0406811
0.0434579
0.042249
0.0375744
0.0304666
0.117152
0.150148
0.178677
0.199093
0.209428
0.207888
0.194209
0.169052
0.135453
0.0957054
0.0525413
0.0088772
-0.0324206
-0.0687699
-0.0980555
-0.11877
-0.130086
-0.131888
-0.124758
-0.109904
-0.0890468
-0.0642586
-0.0377798
-0.0118295
0.0115836
0.0302393
0.0431489
0.0498954
0.0507619
0.046479
0.0383656
0.138706
0.176873
0.209088
0.231002
0.240189
0.234706
0.21401
0.179132
0.133871
0.0811592
0.024473
-0.0324889
-0.0861016
-0.133103
-0.170826
-0.197375
-0.211713
-0.213702
-0.204078
-0.184366
-0.156731
-0.123773
-0.0883095
-0.0531299
-0.0207709
0.00606317
0.0260088
0.0385944
0.0439398
0.0428551
0.0367728
0.139876
0.177258
0.207764
0.226742
0.231688
0.22049
0.19282
0.149922
0.0959145
0.0340941
-0.031657
-0.0972248
-0.158589
-0.212139
-0.25493
-0.284872
-0.300822
-0.302637
-0.291129
-0.267981
-0.235572
-0.196765
-0.154655
-0.112322
-0.0725768
-0.0382639
-0.0109712
0.0085783
0.0203781
0.0251224
0.0241441
0.122319
0.153417
0.177342
0.189695
0.188176
0.170869
0.137617
0.0898015
0.0314194
-0.0342028
-0.103174
-0.171389
-0.234845
-0.289958
-0.333807
-0.364321
-0.380369
-0.381806
-0.369435
-0.34491
-0.31057
-0.269231
-0.223942
-0.177745
-0.133438
-0.0936805
-0.0601546
-0.0337434
-0.0147089
-0.00259223
0.00357179
0.0938396
0.115792
0.13088
0.135312
0.12719
0.104932
0.0685871
0.0195581
-0.0386294
-0.102897
-0.169671
-0.235192
-0.295806
-0.348244
-0.389843
-0.418709
-0.433803
-0.434978
-0.422942
-0.399172
-0.365764
-0.325245
-0.280361
-0.233866
-0.188318
-0.145968
-0.108459
-0.0767856
-0.0514758
-0.0323631
-0.0189814
0.0616158
0.0739367
0.0801738
0.0774064
0.064221
0.0394401
0.00327665
-0.0429816
-0.0965139
-0.154715
-0.214575
-0.27294
-0.326741
-0.373228
-0.410153
-0.4359
-0.449561
-0.450966
-0.440657
-0.419814
-0.390132
-0.353671
-0.312691
-0.269478
-0.226187
-0.184546
-0.146041
-0.111704
-0.0823092
-0.0579768
-0.0388073
0.0329382
0.0373474
0.0367771
0.0292438
0.0137845
-0.010401
-0.0430345
-0.0830712
-0.12849
-0.177293
-0.227175
-0.275709
-0.320521
-0.359463
-0.390749
-0.413062
-0.42561
-0.428161
-0.421025
-0.405005
-0.38131
-0.351446
-0.317098
-0.280008
-0.241862
-0.203865
-0.167276
-0.133102
-0.102321
-0.0752878
-0.0526444
0.0113872
0.0106109
0.00614012
-0.00311907
-0.0177793
-0.0383456
-0.0645943
-0.0958402
-0.130868
-0.168357
-0.206759
-0.244411
-0.279648
-0.310913
-0.336858
-0.356416
-0.368858
-0.373824
-0.371335
-0.361759
-0.345775
-0.324305
-0.298442
-0.269376
-0.238328
-0.206043
-0.173539
-0.141765
-0.111862
-0.0843723
-0.060414
-0.00243169
-0.00565922
-0.0112281
-0.0194587
-0.030735
-0.0453625
-0.0632979
-0.0843023
-0.107927
-0.133547
-0.160371
-0.187473
-0.213844
-0.238455
-0.260313
-0.278518
-0.292317
-0.301152
-0.304686
-0.302817
-0.295674
-0.283599
-0.267122
-0.24692
-0.223795
-0.198127
-0.170725
-0.142483
-0.114696
-0.0880647
-0.0641147
-0.0104538
-0.0141828
-0.0188975
-0.024272
-0.0305616
-0.0379561
-0.0466877
-0.0570222
-0.0692338
-0.083391
-0.0994281
-0.117106
-0.136003
-0.15553
-0.174952
-0.193443
-0.210138
-0.224198
-0.234875
-0.241562
-0.243835
-0.241472
-0.234479
-0.223083
-0.207728
-0.188515
-0.166106
-0.141386
-0.115809
-0.0902455
-0.0665727
-0.015843
-0.0192676
-0.0223483
-0.0242076
-0.0250285
-0.0249298
-0.0244756
-0.0244645
-0.0258673
-0.0294341
-0.035795
-0.0453481
-0.0581975
-0.0741166
-0.0925542
-0.112674
-0.133427
-0.153635
-0.172094
-0.187672
-0.199387
-0.206481
-0.208479
-0.205207
-0.196825
-0.183202
-0.164932
-0.14295
-0.118888
-0.0938151
-0.069922
-0.0215733
-0.0249372
-0.0266682
-0.0253896
-0.0212208
-0.0142132
-0.0052737
0.00427054
0.0127641
0.0187947
0.0210675
0.0185854
0.0107655
-0.00248063
-0.0207331
-0.0431021
-0.0683126
-0.0948215
-0.120958
-0.145062
-0.165618
-0.181362
-0.191382
-0.195163
-0.192628
-0.183461
-0.16825
-0.148028
-0.124615
-0.099303
-0.0745468
-0.0294338
-0.0336359
-0.0349879
-0.031637
-0.0236144
-0.010878
0.00535605
0.0232728
0.0405524
0.0551622
0.0651862
0.0690716
0.0657954
0.0549858
0.0369534
0.0126522
-0.0164221
-0.0483789
-0.081112
-0.112482
-0.14049
-0.163435
-0.180031
-0.189485
-0.191542
-0.185744
-0.172718
-0.153618
-0.130421
-0.104632
-0.0788817
-0.0395557
-0.0456257
-0.0477658
-0.043674
-0.0332575
-0.0163454
0.00560595
0.0303767
0.0550434
0.0770367
0.0939013
0.1036
0.104726
0.0966568
0.0796044
0.0545693
0.0232236
-0.0122625
-0.0494361
-0.085781
-0.118932
-0.146858
-0.168012
-0.181415
-0.186702
-0.183357
-0.172068
-0.154093
-0.131485
-0.105893
-0.0799751
-0.0505289
-0.0591419
-0.0629822
-0.059361
-0.0480399
-0.0286964
-0.00293308
0.0267496
0.0569538
0.0847145
0.107176
0.121941
0.127313
0.12248
0.107569
0.0835983
0.0523429
0.0161399
-0.0223548
-0.0604152
-0.0954852
-0.125383
-0.148459
-0.163684
-0.170688
-0.169021
-0.159439
-0.143257
-0.122469
-0.0987434
-0.0745353
-0.0599736
-0.071129
-0.0770153
-0.0746736
-0.0637305
-0.043716
-0.0162748
0.0159704
0.0493515
0.080708
0.106986
0.125608
0.134735
0.133462
0.121864
0.10095
0.0725128
0.0389121
0.00282085
-0.0330413
-0.0661591
-0.0944295
-0.116313
-0.130907
-0.137963
-0.137268
-0.129654
-0.116413
-0.0993124
-0.0798636
-0.0600438
-0.06542
-0.0783684
-0.08598
-0.085192
-0.0755414
-0.0564455
-0.0294915
0.00274994
0.0366026
0.0689497
0.0967829
0.117571
0.129518
0.131746
0.124339
0.10828
0.0852846
0.0575879
0.0276764
-0.00197546
-0.0291493
-0.0520749
-0.0695546
-0.0810085
-0.0864495
-0.0860879
-0.0808379
-0.0718818
-0.0605754
-0.0480875
-0.0356272
-0.0652979
-0.0787571
-0.0872601
-0.0878231
-0.0799632
-0.0630398
-0.0384977
-0.00869112
0.0229737
0.0536653
0.0806687
0.101729
0.115279
0.120603
0.117853
0.107975
0.0925322
0.0734902
0.0529616
0.0329547
0.0151552
0.000768393
-0.00955945
-0.0157433
-0.0181817
-0.0176688
-0.0151971
-0.01176
-0.00813953
-0.00499408
-0.0025253
-0.0597803
-0.0724175
-0.080863
-0.0823642
-0.0764872
-0.0625861
-0.0418977
-0.0164296
0.0109191
0.0377991
0.0619901
0.081695
0.0957273
0.10363
0.10567
0.10274
0.0961823
0.0875833
0.0785367
0.0704209
0.0642207
0.0604174
0.0589682
0.0593567
0.0607291
0.0616207
0.0609784
0.0580624
0.0527695
0.0450648
0.035886
-0.0511889
-0.0622542
-0.0701361
-0.0723848
-0.0686512
-0.0583071
-0.0423334
-0.0223123
-0.000494074
0.0213665
0.0416508
0.059112
0.0730086
0.083178
0.0899993
0.0942816
0.0970936
0.0995684
0.102703
0.10717
0.113188
0.120468
0.128251
0.135415
0.140662
0.141882
0.138
0.12857
0.114192
0.0954833
0.0745031
-0.0436598
-0.0535603
-0.0613427
-0.064822
-0.0637098
-0.0573697
-0.0464876
-0.0321961
-0.0160877
0.00068249
0.0170877
0.0324051
0.0462975
0.0588441
0.0704794
0.0818742
0.0937761
0.106838
0.121457
0.137623
0.154843
0.172138
0.188131
0.201201
0.209711
0.211055
0.204201
0.188999
0.166684
0.138462
0.10733
-0.0420272
-0.0525854
-0.0619645
-0.0680976
-0.0706645
-0.0689376
-0.0632731
-0.0543749
-0.0433057
-0.0307175
-0.0171678
-0.00299336
0.0117311
0.0271941
0.043775
0.0619292
0.0820485
0.10432
0.128602
0.154321
0.180432
0.205455
0.227606
0.244969
0.255746
0.257096
0.248101
0.228878
0.201145
0.166536
0.128666
-0.0500405
-0.0642034
-0.0778653
-0.0888652
-0.0967052
-0.100451
-0.100091
-0.0959536
-0.0888005
-0.078949
-0.0666862
-0.0521745
-0.0354317
-0.0163404
0.0052858
0.0296045
0.0566323
0.0861391
0.117563
0.149942
0.181908
0.211744
0.237531
0.257315
0.269355
0.270894
0.261197
0.240586
0.211044
0.174405
0.134505
-0.0685487
-0.0895184
-0.110351
-0.128583
-0.143386
-0.153501
-0.158533
-0.158495
-0.154114
-0.145563
-0.133079
-0.116874
-0.09712
-0.0739465
-0.0474858
-0.01794
0.0143389
0.0487807
0.0845458
0.120486
0.155157
0.186879
0.213869
0.234391
0.246964
0.249233
0.240683
0.221759
0.194464
0.160591
0.123785
-0.094633
-0.124678
-0.154672
-0.181716
-0.204547
-0.221512
-0.231844
-0.23531
-0.232824
-0.224583
-0.210947
-0.192357
-0.169293
-0.142251
-0.111753
-0.0783766
-0.0428024
-0.00584449
0.0315252
0.0681589
0.102749
0.133877
0.160114
0.180132
0.192859
0.196574
0.190988
0.176582
0.155158
0.128248
0.0989675
-0.120745
-0.159749
-0.198585
-0.23398
-0.26424
-0.28736
-0.302263
-0.308549
-0.30742
-0.299188
-0.284428
-0.263872
-0.238355
-0.208749
-0.175947
-0.140845
-0.104365
-0.0674534
-0.031086
0.00372948
0.0359625
0.0645869
0.0886411
0.107291
0.119923
0.125551
0.12408
0.115943
0.102592
0.085153
0.0660186
-0.13851
-0.183595
-0.228381
-0.269371
-0.304584
-0.33179
-0.349745
-0.357957
-0.357873
-0.349937
-0.334916
-0.313792
-0.287675
-0.257719
-0.225071
-0.190829
-0.156032
-0.121647
-0.0885521
-0.0575387
-0.0293095
-0.00447483
0.0164682
0.0331526
0.04538
0.0528369
0.0555701
0.0539157
0.0489022
0.0412136
0.0324562
-0.138666
-0.183873
-0.228711
-0.269842
-0.305242
-0.332824
-0.351245
-0.360027
-0.36069
-0.353736
-0.340007
-0.320568
-0.296617
-0.269389
-0.240085
-0.209821
-0.179602
-0.150296
-0.122618
-0.0971229
-0.0742165
-0.0541667
-0.0371127
-0.0230799
-0.0119808
-0.00364952
0.00203517
0.00526534
0.00669598
0.00662664
0.00596214
-0.118124
-0.156792
-0.195177
-0.230412
-0.260804
-0.284435
-0.300405
-0.308232
-0.309242
-0.303902
-0.292969
-0.277399
-0.258253
-0.23662
-0.213543
-0.189972
-0.166737