# vtk DataFile Version 2.0
Func
ASCII
DATASET RECTILINEAR_GRID
DIMENSIONS 31 31 31
X_COORDINATES 31 double
-9.67742
-9.03226
-8.3871
-7.74194
-7.09677
-6.45161
-5.80645
-5.16129
-4.51613
-3.87097
-3.22581
-2.58065
-1.93548
-1.29032
-0.645161
0
0.645161
1.29032
1.93548
2.58065
3.22581
3.87097
4.51613
5.16129
5.80645
6.45161
7.09677
7.74194
8.3871
9.03226
9.67742
Y_COORDINATES 31 double
-9.67742
-9.03226
-8.3871
-7.74194
-7.09677
-6.45161
-5.80645
-5.16129
-4.51613
-3.87097
-3.22581
-2.58065
-1.93548
-1.29032
-0.645161
0
0.645161
1.29032
1.93548
2.58065
3.22581
3.87097
4.51613
5.16129
5.80645
6.45161
7.09677
7.74194
8.3871
9.03226
9.67742
Z_COORDINATES 31 double
-9.67742
-9.03226
-8.3871
-7.74194
-7.09677
-6.45161
-5.80645
-5.16129
-4.51613
-3.87097
-3.22581
-2.58065
-1.93548
-1.29032
-0.645161
0
0.645161
1.29032
1.93548
2.58065
3.22581
3.87097
4.51613
5.16129
5.80645
6.45161
7.09677
7.74194
8.3871
9.03226
9.67742
POINT_DATA 29791
SCALARS data double 1
LOOKUP_TABLE default
-0.0272201
-0.0323327
-0.0353134
-0.0345006
-0.0296587
-0.0203482
-0.00718018
0.00883959
0.0262316
0.0436613
0.0597512
0.0732394
0.0830912
0.0885967
0.0894178
0.0855983
0.0775372
0.0659362
0.0517222
0.0359597
0.0197564
0.00417381
-0.00985567
-0.021587
-0.0305056
-0.0361187
-0.038401
-0.0375485
-0.0342075
-0.0289308
-0.0225496
-0.0438784
-0.0526122
-0.0576858
-0.0569506
-0.0499037
-0.0359148
-0.0159269
0.00857332
0.0352399
0.0620076
0.0867615
0.107573
0.122874
0.131604
0.13328
0.128005
0.11642
0.0996142
0.079004
0.0561912
0.0328175
0.0104293
-0.00964151
-0.0263598
-0.0390366
-0.0470266
-0.0504032
-0.0494934
-0.0451681
-0.0382752
-0.0297753
-0.0580224
-0.0699511
-0.0770213
-0.0766293
-0.0681055
-0.0507251
-0.0255636
0.00544543
0.0392834
0.0733201
0.104879
0.131531
0.151321
0.162944
0.165833
0.160163
0.146773
0.127053
0.102774
0.0759094
0.0484489
0.0222278
-0.00120976
-0.0207045
-0.0355238
-0.0450461
-0.0494104
-0.0491393
-0.0451502
-0.038418
-0.0298757
-0.0665062
-0.0806146
-0.0892781
-0.0896378
-0.0809546
-0.0623985
-0.0351691
-0.00138336
0.0356129
0.0729377
0.107674
0.137197
0.159415
0.17296
0.177279
0.172614
0.159921
0.14072
0.116908
0.0905508
0.0636855
0.038137
0.0153844
-0.00352122
-0.0179781
-0.0275933
-0.0326286
-0.0336457
-0.0314862
-0.0270474
-0.0209855
-0.0683333
-0.0831748
-0.0927928
-0.0942604
-0.0868465
-0.0697188
-0.0440182
-0.0117988
0.023662
0.0595935
0.0932099
0.122031
0.144109
0.158214
0.163896
0.161465
0.151884
0.136613
0.117419
0.096166
0.0746228
0.054299
0.0363353
0.0214508
0.00995611
0.00185469
-0.00324594
-0.00591964
-0.00672365
-0.00631574
-0.00485179
-0.0641904
-0.0785152
-0.0884713
-0.0912614
-0.0862408
-0.0726385
-0.0514249
-0.024381
0.00561577
0.0362009
0.0650187
0.0900058
0.109585
0.122811
0.129414
0.129757
0.124726
0.115573
0.103743
0.0906784
0.0776571
0.0656629
0.0553184
0.0468703
0.0402449
0.0349799
0.0305517
0.0264224
0.0224179
0.0182202
0.0142708
-0.0550357
-0.0678109
-0.0774137
-0.0814382
-0.0793798
-0.070587
-0.0557893
-0.0363577
-0.0145342
0.00791711
0.0292675
0.048049
0.0631948
0.07414
0.0808325
0.0836788
0.0834312
0.081049
0.0775425
0.0738198
0.0705606
0.068133
0.0665752
0.0656227
0.0648031
0.0632112
0.0602078
0.0553145
0.0487534
0.0405571
0.0317874
-0.0423083
-0.0525923
-0.0610158
-0.0657109
-0.0663518
-0.0624481
-0.054482
-0.0433744
-0.0306364
-0.0173716
-0.00462197
0.00678915
0.0163411
0.0238666
0.0295353
0.0337875
0.0372292
0.0405131
0.0442151
0.0487207
0.0541432
0.0602855
0.0666661
0.0725815
0.0772314
0.0793885
0.078329
0.0736336
0.0658419
0.0552618
0.0434434
-0.0273055
-0.034288
-0.0406001
-0.0449913
-0.0473344
-0.0473303
-0.0452605
-0.0416404
-0.0372766
-0.0326683
-0.0282287
-0.0241954
-0.0205975
-0.0172483
-0.0137849
-0.00973854
-0.00462808
0.0019441
0.0102025
0.0201229
0.0313908
0.0433996
0.0553087
0.0661281
0.0748596
0.0801357
0.0811892
0.0776435
0.0702173
0.0593608
0.0468951
-0.0117045
-0.0148652
-0.0182521
-0.0212199
-0.0238409
-0.0260215
-0.0279208
-0.0297626
-0.0317761
-0.0340019
-0.0363748
-0.0386892
-0.0406047
-0.0416714
-0.041382
-0.0392428
-0.0348504
-0.0279665
-0.0185788
-0.00694424
0.00639742
0.0206453
0.0348109
0.0478089
0.0585973
0.065865
0.0688462
0.0671778
0.0615969
0.052544
0.041857
0.00246406
0.00312273
0.0030307
0.0023253
0.000756362
-0.00177576
-0.0053958
-0.0101757
-0.0159565
-0.0225094
-0.0294861
-0.0364204
-0.0427572
-0.0478947
-0.0512412
-0.0522802
-0.0506319
-0.0461099
-0.0387616
-0.0288905
-0.0170541
-0.0040347
0.00923317
0.0217461
0.0325562
0.0405691
0.0450556
0.0456386
0.0429314
0.0372336
0.0301787
0.0129196
0.0166556
0.0194698
0.0211557
0.0213339
0.0197562
0.0162662
0.010818
0.00375398
-0.00461094
-0.0138353
-0.0233705
-0.0325963
-0.0408673
-0.0475668
-0.0521625
-0.0542557
-0.0536258
-0.0502595
-0.0443631
-0.0363576
-0.0268536
-0.0165924
-0.00637928
0.00301771
0.0108049
0.016309
0.0191186
0.0196387
0.0179528
0.0153604
0.0175511
0.0228178
0.0272511
0.0305026
0.0321401
0.0318461
0.029409
0.0247308
0.0181577
0.00995506
0.000513206
-0.00967274
-0.0200337
-0.0299672
-0.0388825
-0.0462483
-0.0516334
-0.0547438
-0.0554504
-0.0537994
-0.0500134
-0.0444769
-0.0376956
-0.0302487
-0.022711
-0.0155885
-0.00949797
-0.00488839
-0.00156819
0.000332277
0.00177532
0.0150633
0.019702
0.0237214
0.0268348
0.0286522
0.0288941
0.0273198
0.023765
0.0184581
0.0115514
0.00331023
-0.00589633
-0.0156161
-0.0253429
-0.0345532
-0.0427463
-0.0494812
-0.0544129
-0.0573208
-0.0581244
-0.0568915
-0.0538351
-0.0492869
-0.0436634
-0.0374036
-0.0308313
-0.0245198
-0.0189362
-0.0140232
-0.0100422
-0.0062412
0.00557657
0.00727029
0.00854876
0.00935539
0.0094402
0.00867822
0.00686735
0.00382509
-0.00038467
-0.00571055
-0.0120098
-0.019045
-0.0264933
-0.0339652
-0.0410341
-0.0472729
-0.0522907
-0.0557693
-0.0574954
-0.0573788
-0.0554669
-0.0519445
-0.0471121
-0.0413553
-0.0350847
-0.0286112
-0.0224799
-0.0171325
-0.0124978
-0.00881977
-0.00533261
-0.00909177
-0.0122183
-0.0156715
-0.0191762
-0.0227629
-0.0263017
-0.0298667
-0.0335685
-0.0374769
-0.0415673
-0.0457553
-0.0498847
-0.0537309
-0.057014
-0.0594254
-0.0606637
-0.060473
-0.058679
-0.0552199
-0.0501652
-0.0437254
-0.0362464
-0.0281773
-0.0200305
-0.01231
-0.00550099
-0.000124796
0.00346669
0.00554231
0.00605809
0.00605529
-0.0256614
-0.0344854
-0.0437196
-0.0527419
-0.0613227
-0.0690186
-0.0756902
-0.081272
-0.085873
-0.0893858
-0.0916828
-0.092605
-0.091969
-0.0895802
-0.0852623
-0.0788932
-0.0704439
-0.0600104
-0.0478359
-0.0343223
-0.020025
-0.00562963
0.0081039
0.0204015
0.0305695
0.0377966
0.0416013
0.041797
0.0390258
0.033617
0.0271142
-0.0401199
-0.0541995
-0.0689511
-0.0834793
-0.0973056
-0.109674
-0.120172
-0.12847
-0.134582
-0.138203
-0.139054
-0.13688
-0.131477
-0.122704
-0.110526
-0.0950452
-0.0765385
-0.055476
-0.0325278
-0.00855777
0.0154061
0.038223
0.0587271
0.0758145
0.0885642
0.0957685
0.0970264
0.092388
0.0829894
0.0696536
0.0545485
-0.0487364
-0.0663411
-0.085023
-0.103763
-0.121895
-0.138415
-0.152621
-0.163866
-0.171923
-0.176201
-0.176179
-0.171433
-0.161679
-0.146806
-0.126923
-0.102383
-0.0738159
-0.042122
-0.0084559
0.0258059
0.0591271
0.0898956
0.116544
0.137664
0.152146
0.158425
0.156242
0.145934
0.129159
0.107264
0.0830139
-0.0490265
-0.0675149
-0.0875704
-0.108246
-0.128789
-0.148061
-0.165101
-0.178934
-0.188973
-0.19429
-0.194071
-0.187675
-0.174709
-0.155075
-0.129019
-0.0971512
-0.0604536
-0.0202528
0.0218349
0.0639658
0.104166
0.140446
0.17095
0.194083
0.20866
0.212916
0.206797
0.190948
0.167461
0.138132
0.10613
-0.040356
-0.056781
-0.0752812
-0.0951873
-0.115774
-0.135918
-0.154459
-0.17013
-0.18191
-0.188533
-0.188884
-0.182103
-0.167679
-0.14552
-0.115998
-0.0799562
-0.0386881
0.00612492
0.0525048
0.0982747
0.141188
0.179069
0.209971
0.232306
0.244981
0.246275
0.236397
0.216275
0.188243
0.154372
0.117901
-0.0240236
-0.0357812
-0.05008
-0.066702
-0.0850592
-0.104184
-0.122804
-0.139434
-0.152595
-0.160734
-0.162474
-0.156764
-0.142994
-0.121081
-0.0915042
-0.0552924
-0.0139682
0.0305514
0.0760856
0.120321
0.160965
0.195901
0.223338
0.241924
0.250841
0.248697
0.236003
0.213901
0.184705
0.150512
0.114224
-0.00283309
-0.00817767
-0.0164385
-0.0279591
-0.0423676
-0.0589705
-0.0764731
-0.0932573
-0.107438
-0.117255
-0.121143
-0.117917
-0.106906
-0.0880435
-0.0618906
-0.0295977
0.00718993
0.0464682
0.086039
0.123671
0.157271
0.185031
0.205556
0.217941
0.221809
0.216365
0.202419
0.181243
0.154835
0.125054
0.0940601
0.0196329
0.0213134
0.0198299
0.0142517
0.00469512
-0.00848847
-0.0240646
-0.0403783
-0.055237
-0.0667794
-0.0733463
-0.073693
-0.0671326
-0.053625
-0.0337827
-0.00880412
0.0196567
0.0496589
0.0791665
0.106231
0.129164
0.146673
0.157944
0.162671
0.161018
0.152977
0.139629
0.122262
0.102311
0.0811677
0.0599304
0.0398037
0.0479795
0.0528962
0.0530988
0.048452
0.0389515
0.0257089
0.0103243
-0.00484207
-0.0179385
-0.0273133
-0.0317405
-0.0305625
-0.0237725
-0.0119995
0.00358356
0.0214197
0.0397608
0.056875
0.071241
0.0817121
0.0876255
0.0888375
0.0856938
0.0789231
0.0693656
0.0583011
0.0469383
0.0359912
0.0262371
0.0175541
0.0548594
0.0680825
0.0781207
0.0831264
0.0827547
0.0766847
0.0658635
0.0517591
0.0367417
0.0225499
0.0107344
0.00243189
-0.00176685
-0.00188827
0.00145771
0.00718908
0.0139307
0.0202181
0.0247091
0.0263768
0.0246562
0.0195236
0.0114804
0.00147187
-0.00928333
-0.019175
-0.0268167
-0.0311585
-0.0322406
-0.0299312
-0.0255495
0.0627659
0.078956
0.0921946
0.100452
0.103241
0.100009
0.0915186
0.0790415
0.064798
0.0503242
0.0369899
0.0257862
0.0172114
0.0112135
0.00723798
0.00434841
0.00140934
-0.00271288
-0.00894961
-0.0178494
-0.0294556
-0.0432572
-0.0582477
-0.0730423
-0.0860948
-0.0952517
-0.0991284
-0.0968827
-0.0892029
-0.0765166
-0.0610525
0.062964
0.0797882
0.0940871
0.10383
0.108477
0.107346
0.101012
0.0905091
0.0777654
0.0640486
0.0504899
0.0378994
0.0266718
0.0167456
0.00765564
-0.00134874
-0.0111334
-0.0224972
-0.0359961
-0.0517862
-0.0695289
-0.0883681
-0.107014
-0.123878
-0.137308
-0.144931
-0.14548
-0.138328
-0.124606
-0.105111
-0.0826603
0.0556336
0.0707582
0.083957
0.0933928
0.0985475
0.0987583
0.0943904
0.0862174
0.0757645
0.0639867
0.0517398
0.0396333
0.0279599
0.0166675
0.00540941
-0.00635489
-0.0192171
-0.0336724
-0.049979
-0.0680357
-0.0873144
-0.106855
-0.125356
-0.141304
-0.153189
-0.158794
-0.157059
-0.147624
-0.13173
-0.110316
-0.0863564
0.0425113
0.0542128
0.0646715
0.0723878
0.0769572
0.0777679
0.0751031
0.0694473
0.0618598
0.0529771
0.0433763
0.0334685
0.0234536
0.0133019
0.00279441
-0.00840261
-0.0206352
-0.0341567
-0.0490305
-0.0650457
-0.0816759
-0.0980817
-0.113189
-0.125789
-0.134721
-0.138241
-0.135638
-0.126578
-0.112271
-0.0935285
-0.0730481
0.0270432
0.034516
0.0414222
0.0466363
0.0499323
0.0508471
0.049529
0.0462697
0.0416622
0.0360576
0.0297827
0.0230741
0.0160539
0.0087196
0.00096903
-0.00735463
-0.016403
-0.0262617
-0.0368957
-0.0481023
-0.0594891
-0.0704798
-0.0803674
-0.0883768
-0.0937868
-0.0955293
-0.0931215
-0.0863952
-0.0762656
-0.0631903
-0.0493812
-0.0484679
-0.0586788
-0.0653115
-0.0660159
-0.0602795
-0.0474179
-0.0283513
-0.00458627
0.0214656
0.047709
0.0719945
0.0923634
0.107225
0.115508
0.116731
0.11101
0.0990111
0.0818576
0.0610026
0.0380875
0.0147918
-0.00730583
-0.0268503
-0.0427937
-0.0544494
-0.0611402
-0.0629633
-0.0603138
-0.0541403
-0.0453221
-0.0350407
-0.0755417
-0.0919143
-0.102416
-0.103949
-0.0955899
-0.0764384
-0.0478704
-0.0120341
0.0273012
0.066953
0.10368
0.134544
0.157181
0.170023
0.172399
0.164543
0.147503
0.122998
0.093209
0.0605687
0.0275242
-0.00366541
-0.0311032
-0.0533679
-0.0695736
-0.0788564
-0.0815458
-0.0782838
-0.0702992
-0.0588722
-0.0454099
-0.0976487
-0.11912
-0.132958
-0.135397
-0.12525
-0.10154
-0.0657922
-0.0207867
0.0286786
0.0785921
0.124896
0.163935
0.192797
0.209587
0.213543
0.205033
0.18543
0.156906
0.122174
0.0842018
0.0459221
0.00997895
-0.0214702
-0.0468794
-0.0653577
-0.0761414
-0.0796961
-0.0769933
-0.0693105
-0.0580969
-0.044721
-0.109817
-0.134384
-0.150498
-0.154036
-0.143708
-0.118408
-0.0798558
-0.0310784
0.0226455
0.0769506
0.12745
0.170228
0.202208
0.221442
0.227219
0.220044
0.201478
0.1739
0.140204
0.103481
0.0667009
0.0324507
0.00274186
-0.0210935
-0.0384105
-0.0488585
-0.0530974
-0.0521485
-0.047203
-0.039577
-0.0302176
-0.110764
-0.135925
-0.153001
-0.157841
-0.149192
-0.125979
-0.0898397
-0.0436889
0.00733594
0.0590691
0.107359
0.148551
0.17983
0.199486
0.207002
0.203002
0.189071
0.167499
0.140973
0.112255
0.0838823
0.0579292
0.0358581
0.0184617
0.00591176
-0.00209565
-0.00639667
-0.0080072
-0.00772656
-0.00648507
-0.00443724
-0.102303
-0.126056
-0.143041
-0.149383
-0.143989
-0.12589
-0.0964781
-0.0582561
-0.015701
0.0276655
0.0683776
0.103446
0.130648
0.148733
0.157473
0.157584
0.150534
0.138292
0.12304
0.106882
0.0915864
0.0784067
0.0679956
0.0604092
0.055221
0.0513671
0.0478561
0.0437674
0.0388371
0.032674
0.0260836
-0.0864819
-0.107325
-0.123265
-0.131056
-0.129847
-0.118838
-0.0990659
-0.0724174
-0.0423429
-0.0114226
0.0178602
0.0434465
0.063909
0.0785861
0.0875838
0.0916765
0.0921145
0.0903972
0.0880254
0.0862611
0.0859407
0.0873612
0.0902728
0.0939462
0.0973485
0.0987058
0.0969045
0.0911665
0.0817989
0.0689738
0.0544824
-0.0661154
-0.0829024
-0.0968355
-0.10548
-0.108274
-0.104622
-0.095185
-0.0811762
-0.0648748
-0.0478304
-0.0314603
-0.0168281
-0.0045263
0.00538318
0.0133269
0.0201048
0.0267119
0.0341446
0.0432066
0.0543309
0.0674648
0.0820261
0.0969653
0.110886
0.122265
0.128823
0.129367
0.123265
0.111305
0.094117
0.0742772
-0.0434307
-0.0552878
-0.0661549
-0.0744871
-0.0800268
-0.0823973
-0.0819482
-0.0792871
-0.0755718
-0.0714122
-0.0672579
-0.0632808
-0.0593367
-0.0549727
-0.0495015
-0.0421233
-0.032081
-0.0188151
-0.00210297
0.0178259
0.0402375
0.0639086
0.0872377
0.108399
0.125588
0.136312
0.139356
0.134198
0.121941
0.103473
0.0818204
-0.0208597
-0.0273074
-0.034171
-0.0407466
-0.0470646
-0.0529722
-0.0586173
-0.0641764
-0.0698951
-0.0756736
-0.0812343
-0.0860879
-0.0895546
-0.0908181
-0.0890193
-0.083374
-0.0733008
-0.0585384
-0.0392365
-0.0160194
0.0100075
0.0373102
0.0640608
0.0883014
0.108184
0.121322
0.126531
0.123349
0.112977
0.0963356
0.0765048
-0.00105148
-0.0022536
-0.00468853
-0.00833373
-0.0134628
-0.0201248
-0.0283984
-0.0382433
-0.0492983
-0.0610535
-0.0728135
-0.0837177
-0.0927969
-0.0990504
-0.101544
-0.0995157
-0.0924776
-0.0802996
-0.0632676
-0.0421103
-0.0179812
0.00760597
0.0329118
0.0561212
0.0755576
0.0892007
0.0959338
0.0952992
0.0884037
0.075995
0.0608526
0.0131412
0.0161032
0.0175824
0.0171629
0.014404
0.00910674
0.00115706
-0.00938108
-0.0218701
-0.0356809
-0.0500006
-0.0638768
-0.0762846
-0.0862054
-0.092717
-0.0950851
-0.0928394
-0.0858381
-0.0743051
-0.0588396
-0.0403937
-0.020215
0.000267975
0.0195678
0.0363135
0.0489895
0.0565673
0.0585482
0.0558136
0.0488144
0.0398065
0.0191012
0.024119
0.0278276
0.0296585
0.0291119
0.0259255
0.0199051
0.0110184
-0.000111007
-0.012953
-0.0268052
-0.0408354
-0.054139
-0.0658055
-0.0749934
-0.0810053
-0.0833493
-0.0817911
-0.0763859
-0.0674854
-0.0557252
-0.0419853
-0.0273051
-0.0127925
0.000512005
0.0115847
0.0194834
0.0236493
0.0247052
0.0227912
0.0196008
0.0152577
0.0194192
0.022658
0.0245331
0.0246147
0.0226942
0.0185261
0.0119611
0.00340973
-0.00680367
-0.0182042
-0.0301906
-0.0420733
-0.0531207
-0.0626181
-0.0699303
-0.0745547
-0.076171
-0.0746766
-0.0701994
-0.0631004
-0.0539538
-0.0434866
-0.0325124
-0.0218244
-0.0121119
-0.00424502
0.00117531
0.00458618
0.00592043
0.006462
0.00188856
0.00206096
0.00169142
0.000693393
-0.00116342
-0.00390359
-0.0077306
-0.0128362
-0.019103
-0.0263996
-0.0344773
-0.0429707
-0.0514152
-0.0592762
-0.0659941
-0.0710393
-0.0739648
-0.0744577
-0.072379
-0.0677865
-0.0609456
-0.0523214
-0.042529
-0.0322765
-0.0222685
-0.0131163
-0.00562906
-0.000390374
0.00301336
0.00450881
0.00527101
-0.0184646
-0.0248326
-0.031542
-0.0381928
-0.044712
-0.0508236
-0.0565602
-0.0620162
-0.067324
-0.0724343
-0.0772243
-0.0814823
-0.0849127
-0.0871545
-0.0878201
-0.0865472
-0.0830542
-0.0771915
-0.0689833
-0.0586523
-0.0466288
-0.033538
-0.0201415
-0.00727198
0.00427478
0.0136798
0.0202061
0.0233826
0.0238129
0.0216703
0.0183865
-0.0412742
-0.0553884
-0.0699235
-0.0839806
-0.0971321
-0.108728
-0.118502
-0.126292
-0.132333
-0.136487
-0.138599
-0.138477
-0.135898
-0.130632
-0.122474
-0.1113
-0.0971251
-0.0801426
-0.0607615
-0.0396205
-0.0175796
0.00431641
0.0249221
0.0430833
0.0577715
0.0677282
0.0723321
0.0713417
0.0657605
0.0562519
0.0448303
-0.0609992
-0.0822638
-0.104327
-0.125904
-0.146229
-0.164269
-0.179369
-0.190975
-0.199208
-0.203663
-0.203979
-0.199839
-0.190992
-0.177288
-0.158716
-0.135463
-0.107955
-0.0768916
-0.0432502
-0.00828357
0.026527
0.0595437
0.0890969
0.113611
0.131771
0.141774
0.143191
0.136123
0.122123
0.102515
0.0800817
-0.0724698
-0.09851
-0.125979
-0.153417
-0.179809
-0.203803
-0.224327
-0.240351
-0.25165
-0.257404
-0.256901
-0.249577
-0.235073
-0.213278
-0.18439
-0.148953
-0.10789
-0.0625026
-0.0144402
0.034344
0.0816831
0.125316
0.163052
0.192931
0.213413
0.222214
0.219195
0.204888
0.18143
0.15085
0.116675
-0.0722267
-0.0993931
-0.128779
-0.159031
-0.189018
-0.217202
-0.242123
-0.262268
-0.276863
-0.284581
-0.284275
-0.275064
-0.256427
-0.228282
-0.191035
-0.145612
-0.093457
-0.0364879
0.0229878
0.0823629
0.138874
0.189764
0.232482
0.26486
0.285302
0.291289
0.283063
0.261621
0.229588
0.189586
0.145633
-0.0593719
-0.0835674
-0.110831
-0.140199
-0.170589
-0.200444
-0.228004
-0.251329
-0.268956
-0.279046
-0.279995
-0.270592
-0.250153
-0.218619
-0.176603
-0.125401
-0.0669365
-0.00366361
0.0615749
0.125694
0.185562
0.238192
0.280958
0.311769
0.329224
0.330945
0.317628
0.290703
0.253047
0.20763
0.158501
-0.0357006
-0.0532773
-0.0747278
-0.0997177
-0.127366
-0.156271
-0.184493
-0.20977
-0.22991
-0.242619
-0.245889
-0.238222
-0.2188
-0.187601
-0.145434
-0.0939084
-0.0353286
0.0274681
0.091317
0.152926
0.20911
0.257005
0.294264
0.3192
0.330884
0.327524
0.31029
0.280947
0.242309
0.197335
0.149541
-0.00512141
-0.0136008
-0.0266315
-0.0446579
-0.0671117
-0.0929011
-0.120034
-0.146058
-0.168112
-0.183563
-0.190104
-0.186038
-0.170468
-0.143427
-0.105891
-0.0597015
-0.00740055
0.0479951
0.103256
0.155192
0.200906
0.238014
0.264791
0.280263
0.284211
0.275834
0.25675
0.228916
0.194728
0.156756
0.117418
0.0273385
0.0288704
0.025369
0.0155802
-0.000299163
-0.0215844
-0.0463506
-0.0720981
-0.0954435
-0.113568
-0.124007
-0.12497
-0.115552
-0.0958577
-0.0669842
-0.0309013
0.00977547
0.0520648
0.0929287
0.129562
0.159656
0.181589
0.194525
0.198409
0.193877
0.181402
0.16297
0.140557
0.115841
0.0906774
0.0659455
0.0566305
0.0674946
0.0730899
0.0714427
0.0623812
0.046148
0.0245057
-0.000132122
-0.0240747
-0.0444872
-0.0588975
-0.0655383
-0.0635609
-0.0531443
-0.0354519
-0.0124662
0.0132851
0.0390508
0.0621943
0.0805056
0.0924548
0.0973467
0.0953421
0.0873784
0.0749547
0.0599031
0.0444424
0.0304205
0.0186045
0.00993028
0.00353431
0.078702
0.0969152
0.109904
0.115161
0.112202
0.100859
0.0826655
0.0598346
0.0361162
0.0142002
-0.00357662
-0.0155734
-0.0210469
-0.0202426
-0.0143232
-0.00517311
0.00490756
0.0135443
0.0186358
0.0186694
0.0129494
0.00170757
-0.0139472
-0.032186
-0.0507706
-0.0666601
-0.0775507
-0.081846
-0.079726
-0.0712088
-0.0588398
0.0905629
0.113208
0.130956
0.141051
0.142793
0.135693
0.121014
0.100679
0.0782342
0.0560827
0.0363022
0.0203242
0.00875671
0.00131327
-0.0030954
-0.00615238
-0.00982223
-0.0160134
-0.0262454
-0.0413504
-0.06128
-0.0850388
-0.110794
-0.136086
-0.1582
-0.173267
-0.179064
-0.174316
-0.160014
-0.136991
-0.109049
0.0913742
0.115175
0.134716
0.147251
0.151989
0.148234
0.136972
0.119767
0.0997346
0.07888
0.0589325
0.041063
0.0257369
0.0126656
0.000903927
-0.0109466
-0.0244463
-0.0410089
-0.0616065
-0.0865068
-0.115121
-0.145976
-0.176855
-0.205032
-0.227669
-0.240596
-0.241827
-0.230416
-0.20791
-0.175675
-0.138255
0.081179
0.102792
0.121061
0.13352
0.139408
0.138017
0.130003
0.11654
0.100126
0.0822903
0.064354
0.0471991
0.0311588
0.0159854
0.000940993
-0.0150279
-0.0330454
-0.0540535
-0.0785738
-0.106498
-0.136978
-0.168425
-0.198653
-0.225102
-0.245201
-0.25508
-0.253111
-0.238765
-0.213688
-0.179427
-0.14059
0.0625627
0.0794911
0.0941471
0.104543
0.11007
0.110018
0.104907
0.0954851
0.0835141
0.0700359
0.0559533
0.0418648
0.0279918
0.0141583
-0.000136472
-0.0155878
-0.0329063
-0.0526351
-0.0749815
-0.0996692
-0.12587
-0.152208
-0.176889
-0.197874
-0.213169
-0.219728
-0.216468
-0.202863
-0.180561
-0.150901
-0.117928
0.0403837
0.0513904
0.0612089
0.068388
0.0725494
0.0731047
0.0703572
0.0647853
0.0573994
0.0487954
0.0394973
0.0298551
0.0200035
0.00985007
-0.000877395
-0.0125503
-0.0255311
-0.0400637
-0.0561747
-0.0735878
-0.0916853
-0.109517
-0.125887
-0.139468
-0.148995
-0.152579
-0.149439
-0.139274
-0.123401
-0.102656
-0.0802093
-0.072787
-0.0894422
-0.10133
-0.10537
-0.100786
-0.0866534
-0.0640427
-0.0349435
-0.00261754
0.0301808
0.0606398
0.0862122
0.104852
0.11521
0.116721
0.109608
0.094799
0.0738038
0.0485305
0.0210959
-0.0063753
-0.0319313
-0.0539446
-0.0712103
-0.0830001
-0.0885901
-0.0882274
-0.0825968
-0.0728928
-0.0602658
-0.0461653
-0.110833
-0.136503
-0.154487
-0.160712
-0.153846
-0.132734
-0.0989512
-0.0552994
-0.00683087
0.0423095
0.0879241
0.126234
0.154234
0.169982
0.172717
0.162856
0.141859
0.11202
0.0761872
0.0374727
-0.00105617
-0.0366406
-0.0670403
-0.0906644
-0.106623
-0.114049
-0.113553
-0.106216
-0.0935626
-0.0772395
-0.0589727
-0.140376
-0.172966
-0.195668
-0.203579
-0.195005
-0.168753
-0.126506
-0.0718991
-0.0113087
0.0500788
0.107051
0.154953
0.190129
0.210272
0.214562
0.203642
0.179425
0.144812
0.103334
0.0587666
0.0147525
-0.0255237
-0.0595719
-0.0857332
-0.103205
-0.111348
-0.111009
-0.103734
-0.0911024
-0.0749704
-0.0569705
-0.15441
-0.190517
-0.215788
-0.224903
-0.216073
-0.187978
-0.142546
-0.0837301
-0.0184772
0.0476144
0.108966
0.160652
0.198878
0.221334
0.22733
0.217734
0.194736
0.161517
0.121831
0.0795808
0.0384073
0.00135216
-0.0293617
-0.0524339
-0.0674573
-0.074418
-0.0744706
-0.0692129
-0.0601208
-0.0488407
-0.0364338
-0.15192
-0.187698
-0.213201
-0.223195
-0.21599
-0.190366
-0.148148
-0.0931383
-0.0320163
0.0299348
0.0875109
0.136197
0.172611
0.19482
0.202435
0.196517
0.179307
0.153871
0.123678
0.0921699
0.0623778
0.0366232
0.0163562
0.0021191
-0.00634642
-0.00994396
-0.010095
-0.00833855
-0.00565563
-0.00315152
-0.00080138
-0.136655
-0.169349
-0.193553
-0.204517
-0.200817
-0.181412
-0.147835
-0.103327
-0.0536157
-0.00308765
0.0440101
0.0840962
0.114617
0.134286
0.143124
0.142329
0.133988
0.120734
0.105353
0.0903917
0.0778388
0.0689035
0.0639426
0.0625061
0.0635338
0.0650894
0.0655332
0.0635322
0.0587895
0.0509473
0.0413507
-0.11247
-0.140339
-0.162224
-0.174284
-0.175453
-0.164915
-0.143773
-0.114423
-0.0811626
-0.047095
-0.0151289
0.012418
0.0340683
0.0493259
0.0586518
0.0633039
0.0650596
0.0658995
0.0676742
0.071789
0.0789716
0.0891498
0.101479
0.114473
0.126282
0.134026
0.135918
0.130907
0.119446
0.101966
0.0811594
-0.0841383
-0.106265
-0.125134
-0.138003
-0.144192
-0.143117
-0.13542
-0.122554
-0.107221
-0.0911305
-0.075762
-0.062108
-0.0505477
-0.0408049
-0.0320302
-0.0229785
-0.0122634
0.00137608
0.018818
0.0403296
0.065433
0.0928798
0.120769
0.14675
0.168356
0.182047
0.185976
0.179375
0.16336
0.139019
0.110134
-0.0549449
-0.0708684
-0.0859913
-0.0987074
-0.108711
-0.11563
-0.119713
-0.121551
-0.122344
-0.122546
-0.122356
-0.121606
-0.119738
-0.115849
-0.10881
-0.0974525
-0.0807833
-0.0581941
-0.0296405
0.00421731
0.0419685
0.0815047
0.120204
0.155177
0.183625
0.20175
0.207741
0.201062
0.183298
0.155941
0.123423
-0.0277754
-0.0374354
-0.0481119
-0.0592208
-0.0707783
-0.082604
-0.0946881
-0.106986
-0.119503
-0.131759
-0.143017
-0.152278
-0.158339
-0.159894
-0.155678
-0.144637
-0.126104
-0.0999493
-0.0666927
-0.0275684
0.0154912
0.0599598
0.102932
0.141378
0.172495
0.192654
0.200171
0.194646
0.177884
0.151481
0.119991
-0.00524459
-0.00912607
-0.0150265
-0.0231413
-0.0337371
-0.0467883
-0.0621953
-0.0795725
-0.0981657
-0.116975
-0.134755
-0.150082
-0.161453
-0.167411
-0.166689
-0.158363
-0.141979
-0.117663
-0.0861754
-0.0489309
-0.00794382
0.0342907
0.0750098
0.111416
0.14099
0.160621
0.168811
0.165201
0.151566
0.12933
0.102687
0.010034
0.0106226
0.00897373
0.0044346
-0.00341547
-0.0146556
-0.0292353
-0.0467102
-0.0660229
-0.0860578
-0.105479
-0.122819
-0.136589
-0.145403
-0.148102
-0.143883
-0.132389
-0.113786
-0.0887928
-0.058667
-0.0251525
0.00963166
0.0433743
0.0737647
0.0987472
0.115921
0.123996
0.122567
0.113199
0.096955
0.0773464
0.0156728
0.0184191
0.0192946
0.0175421
0.0127074
0.0046803
-0.00660365
-0.0208383
-0.0370564
-0.0543342
-0.0715567
-0.0874982
-0.100914
-0.110641
-0.115698
-0.115386
-0.10936
-0.0976824
-0.0808469
-0.0597642
-0.03572
-0.0102962
0.0147725
0.0377425
0.0570585
0.0710265
0.0785381
0.0791031
0.0739889
0.0638468
0.0514104
0.0102808
0.0120262
0.0125596
0.0113462
0.00803635
0.00258835
-0.005149
-0.0150775
-0.0265843
-0.0390923
-0.0518673
-0.0640682
-0.0748061
-0.0832111
-0.0885103
-0.0901047
-0.0876305
-0.0810098
-0.0704783
-0.056586
-0.0401772
-0.0223439
-0.00432173
0.0126148
0.0273043
0.0385705
0.0454365
0.0473378
0.0452806
0.0395983
0.0323908
-0.00564901
-0.00833446
-0.0115872
-0.0154684
-0.0200869
-0.0252996
-0.0312318
-0.0379324
-0.045243
-0.0529236
-0.0606187
-0.0678681
-0.0741338
-0.078837
-0.0814155
-0.0813878
-0.0784149
-0.0723546
-0.0633007
-0.0516001
-0.0378528
-0.0228873
-0.00768003
0.00672965
0.0193699
0.029265
0.0355183
0.0375666
0.0362947
0.0319367
0.0262945
-0.0291959
-0.0391485
-0.0492837
-0.0590563
-0.0682263
-0.0763544
-0.0833787
-0.0893353
-0.0944526
-0.0986824
-0.10191
-0.103934
-0.104475
-0.103191
-0.099722
-0.0937538
-0.0850808
-0.0736661
-0.0596876
-0.0435646
-0.0259645
-0.00777953
0.00995288
0.0261394
0.0397652
0.0497029
0.0551139
0.0555685
0.0520369
0.0449454
0.0362242
-0.0552298
-0.073823
-0.0926178
-0.110471
-0.126743
-0.140619
-0.151687
-0.159766
-0.165264
-0.168096
-0.168166
-0.165345
-0.159469
-0.150358
-0.137853
-0.121882
-0.102524
-0.0800666
-0.055044
-0.0282604
-0.000780777
0.0261129
0.0510238
0.0725549
0.0894664
0.100196
0.103993
0.100728
0.0916727
0.0777373
0.0613696
-0.077448
-0.104043
-0.131293
-0.157607
-0.181968
-0.203168
-0.220326
-0.232847
-0.241026
-0.244489
-0.242922
-0.236064
-0.223724
-0.205813
-0.182387
-0.153704
-0.120289
-0.0829639
-0.0428667
-0.00144668
0.0395807
0.0783186
0.112829
0.141284
0.162152
0.173314
0.174195
0.165128
0.147855
0.123977
0.0966909
-0.089934
-0.121865
-0.155277
-0.188397
-0.219928
-0.24832
-0.272179
-0.290357
-0.302718
-0.308384
-0.306619
-0.296864
-0.27879
-0.252356
-0.217855
-0.175966
-0.127783
-0.0748198
-0.0189726
0.037527
0.0922115
0.142515
0.185956
0.220321
0.24387
0.254019
0.250503
0.234241
0.207497
0.172629
0.133562
-0.0887032
-0.121823
-0.157499
-0.194112
-0.23024
-0.264108
-0.293847
-0.317696
-0.334808
-0.343667
-0.342985
-0.331803
-0.3096
-0.27637
-0.232676
-0.179674
-0.119101
-0.0532183
0.0152946
0.0834478
0.148105
0.206173
0.25482
0.291666
0.314988
0.322052
0.313053
0.28954
0.25421
0.210063
0.161451
-0.0727065
-0.102314
-0.13566
-0.171614
-0.208815
-0.245426
-0.279207
-0.307808
-0.329484
-0.342042
-0.343603
-0.332793
-0.308892
-0.27195
-0.222825
-0.16317
-0.0953576
-0.0223417
0.0525265
0.125682
0.193573
0.252896
0.300812
0.335136
0.354486
0.356456
0.341834
0.312743
0.27209
0.223219
0.170372
-0.044008
-0.0658748
-0.0926249
-0.123902
-0.158573
-0.194924
-0.230486
-0.262421
-0.288013
-0.304453
-0.309326
-0.300892
-0.278284
-0.241638
-0.192118
-0.131843
-0.0637337
0.0087163
0.0817107
0.151413
0.214225
0.267047
0.30747
0.333913
0.345683
0.341262
0.3221
0.290754
0.250007
0.203133
0.153589
-0.00713281
-0.0183339
-0.0354071
-0.0589397
-0.0881595
-0.121636
-0.156832
-0.190565
-0.219216
-0.239493
-0.248575
-0.24446
-0.226213
-0.194093
-0.14955
-0.0950889
-0.0340263
0.0298289
0.0925295
0.150324
0.199975
0.239011
0.26587
0.279949
0.281543
0.270521
0.249
0.219757
0.185082
0.147732
0.109712
0.0320612
0.0326745
0.0266832
0.0125249
-0.00945824
-0.0382363
-0.0713541
-0.105454
-0.136199
-0.160008
-0.173822
-0.175522
-0.164184
-0.140215
-0.105303
-0.0622143
-0.0144671
0.0340714
0.0796078
0.118815
0.149168
0.169164
0.178393
0.177482
0.16788
0.151173
0.130064
0.107304
0.0843817
0.0631443
0.0436412
0.0676353
0.0793778
0.0841165
0.0794255
0.0652156
0.0420591
0.0122125
-0.0209765
-0.0527273
-0.0793833
-0.0978457
-0.106015
-0.10306
-0.0895329
-0.0672762
-0.039167
-0.00871234
0.0204094
0.0448213
0.0618771
0.0699885
0.0688054
0.0591909
0.0430562
0.0229995
0.00238233
-0.0156643
-0.0286288
-0.0360257
-0.0371472
-0.0341121
0.0947443
0.115398
0.129033
0.132586
0.125596
0.108188
0.0823353
0.0512039
0.0196952
-0.00867449
-0.0309487
-0.0451775
-0.0506738
-0.0481046
-0.0393651
-0.0272758
-0.0151353
-0.00622814
-0.00333417
-0.00828849
-0.0216792
-0.0427221
-0.0693721
-0.0985883
-0.126817
-0.149156
-0.162257
-0.164009
-0.154957
-0.13556
-0.109983
0.109666
0.135861
0.155426
0.164998
0.163854
0.151745
0.130308
0.10237
0.0726091
0.0442024
0.0198007
0.00110328
-0.0113695
-0.0183432
-0.0216388
-0.0238531
-0.0279014
-0.0365286
-0.0518347
-0.0748528
-0.105288
-0.141445
-0.18041
-0.218379
-0.251217
-0.273024
-0.28048
-0.271961
-0.248879
-0.212668
-0.168973
0.111267
0.139165
0.161243
0.174159
0.177063
0.169441
0.152577
0.128838
0.102364
0.0758407
0.0514897
0.0306985
0.0138278
0.000169523
-0.0118974
-0.0245985
-0.0403362
-0.0612409
-0.0887454
-0.123209
-0.163708
-0.208009
-0.252781
-0.293955
-0.327297
-0.346631
-0.348918
-0.333005
-0.300887
-0.254604
-0.200597
0.0993758
0.124968
0.145932
0.159285
0.164187
0.160062
0.147771
0.129145
0.107523
0.0849826
0.0632314
0.0433128
0.025456
0.00905341
-0.00719827
-0.0250329
-0.0462544
-0.0723652
-0.10422
-0.141722
-0.183667
-0.22775
-0.270772
-0.308978
-0.338571
-0.353905
-0.352436
-0.333578
-0.299368
-0.252015
-0.197824
0.0769316
0.0971516
0.114168
0.125571
0.130694
0.128888
0.120838
0.107752
0.0920103
0.0750449
0.0580335
0.041682
0.0261258
0.0109166
-0.00486525
-0.0224121
-0.0429233
-0.067334
-0.0960663
-0.128813
-0.164436
-0.200979
-0.235849
-0.266072
-0.288713
-0.299353
-0.296245
-0.278782
-0.248989
-0.208717
-0.1634