# vtk DataFile Version 2.0
Func
ASCII
DATASET RECTILINEAR_GRID
DIMENSIONS 31 31 31
X_COORDINATES 31 double
-9.67742
-9.03226
-8.3871
-7.74194
-7.09677
-6.45161
-5.80645
-5.16129
-4.51613
-3.87097
-3.22581
-2.58065
-1.93548
-1.29032
-0.645161
0
0.645161
1.29032
1.93548
2.58065
3.22581
3.87097
4.51613
5.16129
5.80645
6.45161
7.09677
7.74194
8.3871
9.03226
9.67742
Y_COORDINATES 31 double
-9.67742
-9.03226
-8.3871
-7.74194
-7.09677
-6.45161
-5.80645
-5.16129
-4.51613
-3.87097
-3.22581
-2.58065
-1.93548
-1.29032
-0.645161
0
0.645161
1.29032
1.93548
2.58065
3.22581
3.87097
4.51613
5.16129
5.80645
6.45161
7.09677
7.74194
8.3871
9.03226
9.67742
Z_COORDINATES 31 double
-9.67742
-9.03226
-8.3871
-7.74194
-7.09677
-6.45161
-5.80645
-5.16129
-4.51613
-3.87097
-3.22581
-2.58065
-1.93548
-1.29032
-0.645161
0
0.645161
1.29032
1.93548
2.58065
3.22581
3.87097
4.51613
5.16129
5.80645
6.45161
7.09677
7.74194
8.3871
9.03226
9.67742
POINT_DATA 29791
SCALARS data double 1
LOOKUP_TABLE default
0.00991244
0.0136893
0.0175317
0.0212896
0.024662
0.0273136
0.028914
0.0291243
0.0277846
0.0247277
0.0198944
0.0133552
0.00531839
-0.00387816
-0.0137885
-0.0238932
-0.0336409
-0.0424952
-0.0499808
-0.0557197
-0.0594634
-0.06111
-0.0607042
-0.0584235
-0.0545388
-0.0492249
-0.0429898
-0.0362546
-0.0293562
-0.0227067
-0.0161237
0.0128841
0.0177579
0.0226925
0.0274465
0.0316
0.0347075
0.0362961
0.0358897
0.0332872
0.0282951
0.0208884
0.0112394
-0.000276483
-0.0130988
-0.0265222
-0.039756
-0.0519935
-0.0624866
-0.0706164
-0.075948
-0.0782733
-0.0776269
-0.0742701
-0.0686555
-0.0613509
-0.0528326
-0.0439388
-0.0352894
-0.0271831
-0.0200673
-0.0135288
0.0144472
0.0197328
0.0249378
0.0297507
0.0336617
0.0361573
0.0366846
0.0347479
0.0301816
0.0228589
0.012873
0.000564709
-0.0134828
-0.0284765
-0.0434761
-0.0574786
-0.0695119
-0.0787334
-0.0845178
-0.0865225
-0.084731
-0.0794587
-0.0713099
-0.0611111
-0.0497963
-0.0382856
-0.0276317
-0.0186444
-0.0114405
-0.00631836
-0.00255972
0.0152189
0.0204783
0.0253672
0.0295115
0.0323536
0.0333243
0.0319179
0.0277111
0.0206628
0.0108033
-0.00158328
-0.0159429
-0.0314719
-0.0471699
-0.0619223
-0.0746043
-0.084193
-0.0898782
-0.091157
-0.0879014
-0.0803903
-0.0692966
-0.0556153
-0.0405623
-0.0254253
-0.0115982
-0.000273965
0.00774669
0.0125273
0.014056
0.0133571
0.0169309
0.0223962
0.0270702
0.0305513
0.0322402
0.0315492
0.0280483
0.0214392
0.0118723
-0.000424623
-0.0149559
-0.0309585
-0.0474388
-0.063245
-0.0771629
-0.0880315
-0.0948611
-0.0969455
-0.0939524
-0.0859847
-0.073596
-0.0577597
-0.0397733
-0.0211324
-0.00336132
0.0118204
0.0231867
0.02997
0.0324175
0.0307729
0.0262726
0.0212068
0.0277696
0.0331522
0.0369
0.0383518
0.0368876
0.032134
0.0238911
0.0125049
-0.00163866
-0.0178874
-0.035338
-0.0528868
-0.0693115
-0.083372
-0.0939261
-0.10004
-0.101095
-0.0968634
-0.0875618
-0.0738539
-0.0568087
-0.0377987
-0.0183697
-7.25082e-05
0.0153402
0.0266914
0.0332639
0.0353264
0.0332009
0.0280817
0.0281731
0.0368711
0.0441542
0.04948
0.0521032
0.0513533
0.0468573
0.0384382
0.0265912
0.0117641
-0.00534498
-0.0238119
-0.0425408
-0.0603449
-0.0760397
-0.0885446
-0.0969773
-0.100741
-0.0995919
-0.0936726
-0.0835174
-0.0700125
-0.0543098
-0.0377173
-0.021558
-0.00725786
0.00412745
0.0119191
0.0162029
0.0171299
0.0155684
0.0364821
0.0479463
0.0579567
0.0658772
0.0708757
0.0722347
0.0695274
0.0625233
0.0517961
0.0377479
0.0210008
0.00237066
-0.0171808
-0.0366136
-0.0548828
-0.0710165
-0.0841822
-0.0937516
-0.0993495
-0.10088
-0.098533
-0.0927624
-0.0842375
-0.0737731
-0.06224
-0.0504268
-0.0392024
-0.0292173
-0.0207282
-0.0139627
-0.00861849
0.0433469
0.057196
0.0697033
0.0801712
0.0877237
0.0916464
0.0914567
0.0868478
0.0784192
0.0664656
0.0514551
0.0340043
0.0148432
-0.00523053
-0.0253978
-0.0448638
-0.0628899
-0.0788298
-0.0921591
-0.102488
-0.109575
-0.113334
-0.11382
-0.111226
-0.105842
-0.0976673
-0.0873207
-0.0753942
-0.0625194
-0.0493614
-0.0362828
0.045688
0.0603432
0.0737882
0.0853363
0.094155
0.0996326
0.101301
0.0988413
0.0928737
0.0836098
0.0713687
0.0565537
0.0396284
0.0210936
0.00147059
-0.0187099
-0.0389012
-0.0585439
-0.0770695
-0.0938969
-0.108449
-0.120173
-0.128579
-0.133268
-0.133971
-0.129954
-0.121525
-0.109151
-0.0937155
-0.0761942
-0.0575347
0.041384
0.0543534
0.06609
0.0760069
0.0834295
0.0879739
0.0893264
0.0873003
0.0825995
0.075468
0.066178
0.0549952
0.0421601
0.0278797
0.0123355
-0.00429412
-0.0217898
-0.0398564
-0.0580944
-0.0759712
-0.0928257
-0.107894
-0.120367
-0.129457
-0.134478
-0.134199
-0.128586
-0.117883
-0.10299
-0.0849211
-0.0649769
0.030313
0.038899
0.0459214
0.0509645
0.0536162
0.0538357
0.0516342
0.0471538
0.0412961
0.0345227
0.0272327
0.0197045
0.0120668
0.00429259
-0.00377654
-0.0123808
-0.0217627
-0.0320913
-0.0433919
-0.0554825
-0.0679491
-0.0801551
-0.0912954
-0.100473
-0.106811
-0.108901
-0.106362
-0.0991317
-0.087857
-0.073282
-0.0567492
0.0147234
0.0169193
0.0168393
0.0142563
0.00908056
0.00167817
-0.00746276
-0.0176823
-0.0277376
-0.0367489
-0.0439912
-0.0489915
-0.0515854
-0.0519339
-0.0504945
-0.0479506
-0.0451
-0.0427352
-0.0415245
-0.0419032
-0.0440031
-0.0476262
-0.0522728
-0.0572071
-0.0615754
-0.0640773
-0.0640202
-0.060981
-0.0551533
-0.0467733
-0.036939
-0.00126757
-0.00601864
-0.0140997
-0.0256096
-0.0403226
-0.0574814
-0.0760326
-0.0946698
-0.111672
-0.125581
-0.135175
-0.139626
-0.13859
-0.132251
-0.121296
-0.106828
-0.0902271
-0.0729811
-0.0565179
-0.042041
-0.0304043
-0.0220355
-0.0169266
-0.0146731
-0.014587
-0.0156275
-0.016846
-0.0174611
-0.0171302
-0.0154978
-0.013224
-0.0128921
-0.0233594
-0.0384117
-0.0581525
-0.082118
-0.109256
-0.13795
-0.166213
-0.191744
-0.212426
-0.226445
-0.232511
-0.23
-0.219025
-0.200423
-0.175654
-0.146632
-0.115516
-0.084484
-0.055511
-0.0301887
-0.0095959
0.00575375
0.0158989
0.0213285
0.0228277
0.0215404
0.0185628
0.0147325
0.0109254
0.00699408
-0.0162763
-0.0296725
-0.0489119
-0.0742777
-0.105196
-0.140476
-0.178028
-0.215246
-0.249208
-0.277146
-0.296648
-0.305935
-0.304055
-0.290989
-0.26765
-0.235766
-0.197688
-0.156135
-0.11392
-0.0736717
-0.0376028
-0.00733302
0.0161985
0.0327407
0.0426389
0.0465311
0.0457067
0.0415126
0.0351702
0.0279108
0.0200903
-0.0097968
-0.0225286
-0.0421699
-0.0693486
-0.103527
-0.143553
-0.187015
-0.230832
-0.271479
-0.305632
-0.330349
-0.3434
-0.343513
-0.330509
-0.305305
-0.2698
-0.22665
-0.178979
-0.130062
-0.083002
-0.0404537
-0.00441276
0.0238998
0.0440562
0.0563385
0.0613472
0.0604796
0.0552706
0.0472169
0.0377431
0.0276816
0.00518409
-0.00353138
-0.0198844
-0.0449446
-0.0783416
-0.119109
-0.164699
-0.211749
-0.256218
-0.294377
-0.322874
-0.339117
-0.341547
-0.329807
-0.304757
-0.268353
-0.223408
-0.17328
-0.121523
-0.0715379
-0.026261
0.0120696
0.0420496
0.0631363
0.0755767
0.0799367
0.0776783
0.0704691
0.0600338
0.0479112
0.0354299
0.0244396
0.0218254
0.0112682
-0.00872439
-0.0380327
-0.0759675
-0.12003
-0.166794
-0.211864
-0.251297
-0.281488
-0.299588
-0.303797
-0.293563
-0.269605
-0.233805
-0.188969
-0.138513
-0.0861038
-0.0352976
0.0107833
0.049703
0.0798681
0.10057
0.111941
0.114345
0.109232
0.0983408
0.0836491
0.0668402
0.0498304
0.0418338
0.045445
0.0412721
0.0275593
0.00415397
-0.0285458
-0.0682643
-0.111738
-0.15448
-0.192548
-0.222273
-0.240672
-0.245756
-0.236742
-0.214103
-0.179486
-0.1355
-0.0854265
-0.0328784
0.0185406
0.0655612
0.10551
0.136493
0.15747
0.168258
0.168703
0.1601
0.14417
0.123198
0.0991139
0.0745567
0.0508491
0.0586932
0.0594097
0.0512709
0.033897
0.00745197
-0.0261699
-0.0641135
-0.102158
-0.136628
-0.164016
-0.181361
-0.186548
-0.178531
-0.157411
-0.12441
-0.0817099
-0.0322282
0.0206654
0.0734444
0.122726
0.165534
0.199518
0.223079
0.235454
0.235585
0.224407
0.203474
0.1754
0.142448
0.108084
0.0463302
0.0547279
0.0572003
0.0524262
0.0399002
0.0196598
-0.0069304
-0.0376827
-0.0690984
-0.0980847
-0.121576
-0.136842
-0.141746
-0.134967
-0.116121
-0.0857962
-0.045491
0.00251205
0.0553358
0.109716
0.162254
0.209667
0.249042
0.278033
0.295046
0.297801
0.286627
0.262712
0.228909
0.187801
0.143674
0.0259617
0.0304492
0.0308024
0.0265044
0.017061
0.0025149
-0.0164378
-0.0385365
-0.0615146
-0.0832155
-0.101349
-0.113676
-0.118205
-0.113389
-0.0982806
-0.0726589
-0.037083
0.00709731
0.0577982
0.112288
0.167358
0.219543
0.265401
0.301777
0.326113
0.334776
0.327256
0.304152
0.268332
0.222541
0.171706
-0.0087983
-0.0123136
-0.0176027
-0.0240496
-0.0319903
-0.0412609
-0.0519348
-0.063904
-0.0766055
-0.089164
-0.100403
-0.108871
-0.112939
-0.110946
-0.101392
-0.0831411
-0.0556206
-0.0189818
0.0257923
0.0768243
0.131404
0.186148
0.237288
0.28099
0.313775
0.330783
0.330523
0.312799
0.280178
0.235283
0.18332
-0.0526419
-0.0667787
-0.0799131
-0.0901224
-0.0974619
-0.101561
-0.103312
-0.103877
-0.104711
-0.106466
-0.109344
-0.112938
-0.116209
-0.117558
-0.115029
-0.106593
-0.090475
-0.0654762
-0.0312515
0.0114672
0.0608022
0.113804
0.166719
0.215338
0.255496
0.281482
0.290822
0.28242
0.258207
0.220342
0.173855
-0.0976562
-0.122838
-0.144155
-0.158389
-0.165251
-0.164129
-0.156687
-0.145331
-0.133564
-0.123626
-0.117201
-0.115064
-0.116936
-0.121469
-0.126435
-0.129064
-0.126481
-0.116166
-0.0963844
-0.0665634
-0.0274939
0.0186455
0.0685008
0.11789
0.16234
0.195821
0.215043
0.218039
0.205861
0.179919
0.144608
-0.133745
-0.167842
-0.195556
-0.212735
-0.218752
-0.212788
-0.197101
-0.175084
-0.151933
-0.13124
-0.115991
-0.108068
-0.107982
-0.114776
-0.126187
-0.139
-0.149551
-0.154275
-0.150251
-0.135688
-0.110238
-0.0751159
-0.0329616
0.0124719
0.0568437
0.0943917
0.121345
0.135074
0.13569
0.123729
0.102633
-0.152759
-0.191349
-0.222112
-0.240324
-0.245131
-0.235569
-0.214208
-0.184973
-0.154025
-0.125781
-0.104075
-0.0915685
-0.0894168
-0.097103
-0.112561
-0.132512
-0.152971
-0.169828
-0.179429
-0.179114
-0.167599
-0.145164
-0.113587
-0.0759023
-0.0359233
0.00135664
0.0321171
0.0534193
0.0645802
0.0653491
0.0580696
-0.148512
-0.185523
-0.21483
-0.231687
-0.23515
-0.224322
-0.201577
-0.170769
-0.13801
-0.107761
-0.0839852
-0.0695756
-0.066002
-0.0731212
-0.0892579
-0.111486
-0.136087
-0.159067
-0.176711
-0.186083
-0.185411
-0.174301
-0.153732
-0.125879
-0.0937386
-0.0611835
-0.0316067
-0.00782245
0.00905241
0.0182519
0.0211278
-0.121701
-0.151777
-0.175698
-0.189256
-0.191666
-0.181969
-0.162358
-0.135909
-0.107676
-0.0813911
-0.0604338
-0.047338
-0.0434999
-0.0489999
-0.0626535
-0.0822168
-0.104736
-0.126954
-0.145749
-0.158535
-0.163581
-0.160209
-0.148813
-0.130753
-0.108096
-0.0834725
-0.0594941
-0.0384082
-0.0213884
-0.00933906
-0.00163189
-0.0813243
-0.101157
-0.117358
-0.126495
-0.128202
-0.121682
-0.108392
-0.0904951
-0.0712943
-0.053292
-0.0387882
-0.0295375
-0.026555
-0.0299893
-0.0391456
-0.0526131
-0.0684845
-0.084616
-0.0989082
-0.109571
-0.115334
-0.115585
-0.110401
-0.10049
-0.0870392
-0.0715452
-0.055641
-0.040813
-0.0279489
-0.0177597
-0.0100602
0.0105202
0.0149854
0.0197637
0.0247532
0.0295335
0.0336667
0.0366158
0.0377857
0.0368106
0.0333517
0.0272416
0.0185311
0.00750478
-0.0053267
-0.0192636
-0.0334779
-0.0470879
-0.0592418
-0.0691989
-0.0763951
-0.0804978
-0.0814319
-0.0793715
-0.074709
-0.0679817
-0.0596275
-0.0505163
-0.0413367
-0.0324513
-0.0243681
-0.0167909
0.0128999
0.0184523
0.0243998
0.0305553
0.0363499
0.0412062
0.0443634
0.0449816
0.0425766
0.0367315
0.027296
0.0144483
-0.00128985
-0.0190741
-0.0378043
-0.0562268
-0.0730554
-0.0871026
-0.0974028
-0.10331
-0.104573
-0.101356
-0.094206
-0.0839837
-0.0717277
-0.0584174
-0.0454589
-0.033836
-0.0238196
-0.0158976
-0.00937507
0.0135694
0.0193178
0.025321
0.0313544
0.0367168
0.0407272
0.0425016
0.0411292
0.0361189
0.0271147
0.0141125
-0.00247735
-0.0218253
-0.0427273
-0.0637061
-0.0831553
-0.0995044
-0.111391
-0.117816
-0.118267
-0.112788
-0.101997
-0.0870011
-0.0692776
-0.0504749
-0.0323524
-0.016649
-0.00461264
0.0037168
0.0080977
0.00978787
0.0134734
0.0188766
0.0241577
0.0290721
0.0328264
0.0346472
0.0336996
0.0291378
0.0205983
0.00792067
-0.00864407
-0.0283805
-0.050125
-0.0723407
-0.0932507
-0.111018
-0.123941
-0.130658
-0.130315
-0.122697
-0.108293
-0.0882739
-0.0643723
-0.0387049
-0.0135125
0.00862214
0.0257429
0.0366295
0.0414233
0.0402853
0.0350625
0.0146518
0.0200043
0.0246635
0.0284054
0.03036
0.0297209
0.0257462
0.0177282
0.00553089
-0.0107513
-0.0305834
-0.0529525
-0.0764089
-0.0991667
-0.119262
-0.134752
-0.143931
-0.145537
-0.138928
-0.124207
-0.102263
-0.0747287
-0.0438207
-0.0121229
0.0177137
0.0425232
0.0602822
0.0698233
0.071473
0.0657423
0.0548954
0.0190104
0.0254285
0.0306287
0.0343829
0.0357285
0.0338302
0.0280122
0.0176617
0.00287472
-0.0160617
-0.0384167
-0.0629934
-0.0881856
-0.112093
-0.132688
-0.148017
-0.156413
-0.156697
-0.148342
-0.131592
-0.107486
-0.0778019
-0.0448878
-0.0114369
0.0198167
0.0456003
0.0639261
0.0736825
0.0751831
0.0690228
0.0574705
0.0264283
0.035126
0.042323
0.047741
0.0503182
0.0491996
0.0437009
0.0331965
0.0179457
-0.00171628
-0.0250348
-0.0508204
-0.0775074
-0.103264
-0.126147
-0.144284
-0.156064
-0.160319
-0.15647
-0.14463
-0.125628
-0.100964
-0.0726592
-0.0430649
-0.0145944
0.00996453
0.0287498
0.0406668
0.0457846
0.0444279
0.0383796
0.034988
0.0466096
0.0567458
0.0650678
0.0704386
0.0720211
0.0690558
0.0608014
0.047579
0.0296132
0.00749506
-0.0177995
-0.0449554
-0.0724032
-0.0984402
-0.12138
-0.1397
-0.152187
-0.158063
-0.157071
-0.149515
-0.136233
-0.118513
-0.0979586
-0.0762969
-0.0553145
-0.0366552
-0.0214199
-0.00995529
-0.00249695
0.00184558
0.0411615
0.0550448
0.0676738
0.0787187
0.0870487
0.0919327
0.0925491
0.0880281
0.0786836
0.0645465
0.0459298
0.0234535
-0.00197789
-0.0292226
-0.0569765
-0.0838728
-0.108572
-0.129867
-0.146773
-0.158595
-0.164982
-0.16594
-0.161812
-0.153227
-0.141011
-0.12568
-0.108542
-0.0906515
-0.0727879
-0.0558244
-0.039932
0.0412845
0.0552831
0.0682601
0.0799812
0.0894527
0.0961836
0.0994116
0.0982579
0.0930433
0.0836555
0.0701484
0.0527694
0.0319568
0.00833258
-0.0173237
-0.0441158
-0.0710592
-0.0971282
-0.121307
-0.142625
-0.160215
-0.173359
-0.181526
-0.184405
-0.181915
-0.173357
-0.159581
-0.141458
-0.120039
-0.0966509
-0.0723946
0.0331583
0.0440779
0.053935
0.0626986
0.0696615
0.0747214
0.0773918
0.0770311
0.0740841
0.06849
0.0602144
0.0492608
0.0356754
0.0195672
0.00112505
-0.0193666
-0.0414904
-0.0646795
-0.0882115
-0.111202
-0.132641
-0.151449
-0.166551
-0.176967
-0.181899
-0.179785
-0.170905
-0.155765
-0.135399
-0.1112
-0.0848227
0.0172756
0.0218348
0.0247815
0.0263566
0.0262598
0.0248964
0.0223115
0.0184133
0.0139752
0.00928507
0.00450311
-0.000365035
-0.0054797
-0.0111411
-0.0177433
-0.0257077
-0.035384
-0.046961
-0.0603906
-0.0753212
-0.0910876
-0.106741
-0.121127
-0.132997
-0.141155
-0.143649
-0.140137
-0.130594
-0.115716
-0.0965253
-0.0747498
-0.00286635
-0.00687015
-0.0136472
-0.0227049
-0.0338864
-0.0462357
-0.0589575
-0.0713019
-0.0819209
-0.0898613
-0.0944494
-0.0953837
-0.0927876
-0.0872022
-0.0795264
-0.070911
-0.0626004
-0.0557673
-0.0513538
-0.0499293
-0.0516074
-0.0560211
-0.0623724
-0.0695349
-0.076223
-0.0805197
-0.0814724
-0.0784392
-0.0715383
-0.0610885
-0.0484757
-0.0215818
-0.0343332
-0.0515519
-0.0726258
-0.0969854
-0.123181
-0.149553
-0.174321
-0.195335
-0.210725
-0.21904
-0.219422
-0.211725
-0.196548
-0.175173
-0.149427
-0.121472
-0.0935572
-0.0677738
-0.0458236
-0.0288474
-0.0173276
-0.0110886
-0.0093705
-0.0110045
-0.0143269
-0.0178523
-0.0203314
-0.0212131
-0.0199984
-0.0174996
-0.032691
-0.0520057
-0.0777781
-0.109507
-0.146346
-0.186501
-0.227473
-0.266418
-0.300222
-0.325982
-0.341318
-0.344659
-0.335429
-0.314129
-0.28229
-0.242308
-0.197174
-0.15016
-0.104471
-0.0629329
-0.0277223
-0.000196556
0.0191607
0.0306965
0.0354135
0.0347436
0.0305965
0.0247318
0.0183163
0.0125618
0.00724915
-0.0315547
-0.0532891
-0.0834468
-0.121914
-0.167757
-0.219055
-0.272622
-0.324676
-0.371077
-0.407919
-0.431895
-0.440682
-0.433206
-0.409782
-0.372067
-0.322878
-0.265876
-0.205171
-0.144895
-0.0888031
-0.0399203
-0.00030622
0.0290452
0.0481824
0.0580201
0.0599342
0.0561542
0.0488116
0.0395503
0.0300593
0.0205963
-0.0167822
-0.0359164
-0.065101
-0.104856
-0.154365
-0.211798
-0.273537
-0.335108
-0.391396
-0.437652
-0.469765
-0.484739
-0.481022
-0.458697
-0.419446
-0.366351
-0.303528
-0.235675
-0.167581
-0.103642
-0.0474562
-0.00153205
0.0328401
0.0555745
0.0676073
0.0704253
0.0664911
0.0581767
0.047465
0.0362915
0.0252708
0.00892973
-0.00314909
-0.0263353
-0.0619158
-0.109358
-0.167108
-0.231401
-0.297395
-0.359163
-0.411367
-0.449302
-0.469443
-0.469834
-0.450306
-0.412468
-0.359487
-0.2957
-0.226123
-0.155908
-0.0898181
-0.0317748
0.0154631
0.050451
0.0730495
0.0842417
0.0856127
0.0797745
0.0692356
0.0562469
0.0428772
0.0300969
0.0390991
0.0365962
0.0226284
-0.0048123
-0.0455758
-0.0984867
-0.159922
-0.225019
-0.287327
-0.34123
-0.381687
-0.404829
-0.408374
-0.39188
-0.356753
-0.306038
-0.244034
-0.175792
-0.106561
-0.0412511
0.0160399
0.0623658
0.0961057
0.116971
0.12585
0.124137
0.114472
0.0994078
0.0814706
0.062904
0.0452007
0.0648458
0.0716169
0.0673233
0.0494877
0.0178709
-0.0267458
-0.081143
-0.140789
-0.199143
-0.25066
-0.290268
-0.313952
-0.319186
-0.305207
-0.273048
-0.225379
-0.166154
-0.100153
-0.0324653
0.0320241
0.0890969
0.135549
0.169396
0.189926
0.197606
0.193104
0.178881
0.157415
0.131543
0.103826
0.0765601
0.0770093
0.0897895
0.0927019
0.0832449
0.0608725
0.026035
-0.0186842
-0.0694452
-0.120197
-0.16588
-0.201742
-0.223863
-0.229571
-0.21772
-0.188774
-0.14472
-0.0888077
-0.0251908
0.0415019
0.106594
0.165789
0.215509
0.25315
0.277202
0.287277
0.28268
0.265382
0.237592
0.20244
0.162932
0.122437
0.0685391
0.0817629
0.087168
0.0827992
0.0679618
0.042889
0.00931812
-0.0299682
-0.0701292
-0.107071
-0.136783
-0.155752
-0.161309
-0.151899
-0.127224
-0.0882668
-0.037172
0.0229533
0.0883134
0.154715
0.217911
0.273919
0.319325
0.351505
0.368808
0.368635
0.352089
0.320825
0.27813
0.227439
0.173291
0.0365086
0.0436095
0.0458366
0.0423805
0.0326013
0.0166518
-0.00476611
-0.0302826
-0.0570546
-0.0824824
-0.103792
-0.118261
-0.123456
-0.117471
-0.0991233
-0.0681115
-0.0250841
0.028344
0.0896562
0.155531
0.222059
0.28501
0.34017
0.383677
0.412383
0.421544
0.411021
0.381582
0.336378
0.279057
0.215147
-0.0165873
-0.021537
-0.0275727
-0.0338593
-0.0407681
-0.0481104
-0.0563475
-0.0658201
-0.0763993
-0.0874839
-0.0980319
-0.106535
-0.111111
-0.109662
-0.100122
-0.0807479
-0.0504036
-0.00882405
0.0431972
0.10367
0.169453
0.236432
0.299864
0.354808
0.396659
0.418692
0.41927
0.397962
0.357393
0.301026
0.234913
-0.0827513
-0.103491
-0.120944
-0.132355
-0.137653
-0.136522
-0.130637
-0.122191
-0.114226
-0.108489
-0.106046
-0.106974
-0.110264
-0.11388
-0.115021
-0.110535
-0.0974151
-0.0733071
-0.036967
0.0113518
0.0697452
0.134707
0.201447
0.26437
0.317753
0.353448
0.368269
0.360414
0.331597
0.284619
0.225409
-0.150227
-0.187295
-0.216631
-0.233568
-0.237504
-0.227949
-0.207702
-0.180735
-0.153285
-0.129509
-0.112704
-0.10472
-0.105667
-0.113845
-0.125999
-0.137815
-0.144588
-0.141949
-0.126559
-0.0967275
-0.0527752
0.00287336
0.0659351
0.13075
0.191027
0.238017
0.26719
0.27541
0.263217
0.23236
0.187978
-0.204058
-0.254235
-0.292886
-0.313922
-0.316236
-0.299173
-0.266374
-0.223199
-0.178482
-0.138395
-0.108172
-0.091287
-0.0889965
-0.10015
-0.121402
-0.147741
-0.173261
-0.192034
-0.198967
-0.190596
-0.165613
-0.125102
-0.0723836
-0.01259
0.0480838
0.101187
0.141331
0.164357
0.169615
0.157637
0.132305
-0.232517
-0.289422
-0.332656
-0.355284
-0.355859
-0.333581
-0.292516
-0.238746
-0.182555
-0.131316
-0.0914883
-0.0676705
-0.0620362
-0.0740537
-0.100645
-0.136684
-0.175796
-0.211258
-0.236935
-0.248136
-0.242249
-0.219067
-0.180745
-0.131446
-0.0766761
-0.0238155
0.0215321
0.0547165
0.0741417
0.0792455
0.0724592
-0.226145
-0.281
-0.322396
-0.343451
-0.342608
-0.319179
-0.276871
-0.221611
-0.163538
-0.110016
-0.0676239
-0.0412349
-0.0334334
-0.0442043
-0.0710329
-0.109329
-0.153141
-0.195986
-0.231713
-0.255322
-0.263583
-0.255407
-0.231866
-0.195952
-0.152029
-0.10586
-0.0625265
-0.0265048
0.000182749
0.0162743
0.0229479
-0.18644
-0.231462
-0.265507
-0.282572
-0.281335
-0.260862
-0.224622
-0.177347
-0.127452
-0.0811176
-0.0439468
-0.0201878
-0.0122455
-0.020393
-0.0428328
-0.0760089
-0.115163
-0.154984
-0.190308
-0.216768
-0.231323
-0.232578
-0.220847
-0.198003
-0.16709
-0.132068
-0.0969338
-0.0652924
-0.0391053
-0.0197938
-0.00703145
-0.126376
-0.156597
-0.179901
-0.191573
-0.190842
-0.176764
-0.151721
-0.11916
-0.0846479
-0.0523966
-0.0262761
-0.00926552
-0.00312308
-0.00817469
-0.0233427
-0.0463444
-0.0740475
-0.102894
-0.12936
-0.150392
-0.163758
-0.168285
-0.163914
-0.151626
-0.133207
-0.110961
-0.0874488
-0.0650958
-0.0453629
-0.0293701
-0.0172228
0.00616694
0.00988236
0.0144135
0.0197878
0.0255674
0.0312996
0.036208
0.0394507
0.0403302
0.0382561
0.032865
0.0240983
0.0122342
-0.00211416
-0.0180498
-0.0344783
-0.0502179
-0.0641234
-0.0752066
-0.082736
-0.0863155
-0.0859222
-0.0818874
-0.0748445
-0.0656225
-0.0550182
-0.0441878
-0.0340886
-0.0250322
-0.0175296
-0.0111218
0.00602128
0.0102932
0.0156755
0.0221568
0.0291517
0.0360474
0.0417396
0.0450549
0.0450229
0.0408807
0.0322206
0.0190954
0.00205622
-0.0178649
-0.0392456
-0.0604172
-0.0796434
-0.0953138
-0.106127
-0.111238
-0.11037
-0.103845
-0.0925315
-0.0777321
-0.0609947
-0.0439568
-0.0284652
-0.0158573
-0.00631892
-0.000274852
0.00335115
0.00440492
0.00833508
0.0133496
0.019459
0.0259264
0.0319974
0.0363866
0.0377724
0.0350681
0.0275199
0.0148495
-0.00262928
-0.0239819
-0.0476993
-0.0718362
-0.0942154
-0.112673
-0.125316
-0.130756
-0.128298
-0.118058
-0.100975
-0.0787016
-0.0534195
-0.0275502
-0.0038844
0.0152379
0.0281774
0.035005
0.0356548
0.0320519
0.0023844
0.00544369
0.00922721
0.013771
0.018227
0.0217307
0.0229873
0.0206997
0.0138467
0.00185948
-0.0152628
-0.0368386
-0.0614989
-0.0872706
-0.111761
-0.132416
-0.14682
-0.152998
-0.149684
-0.136536
-0.114237
-0.0844773
-0.0497783
-0.0132358
0.0218646
0.0515242
0.0730339
0.0847755
0.0870211
0.0802639
0.067278
0.0019111
0.00442607
0.00705242
0.00989739
0.0120164
0.0125
0.0101061
0.00365175
-0.00769395
-0.024241
-0.0456756
-0.0709571
-0.09834
-0.12549
-0.149704
-0.168204
-0.178468
-0.178562
-0.167414
-0.145043
-0.112636
-0.0724989
-0.0278346
0.0175754
0.0598175
0.0940087
0.117254
0.127977
0.126629
0.114163
0.0939484
0.0043898
0.00741749
0.0100138
0.012353
0.01339
0.0121994
0.00755759
-0.00165019
-0.0160751
-0.0358562
-0.0604915
-0.0887431
-0.118674
-0.147782
-0.173227
-0.192146
-0.20198
-0.200813
-0.187651
-0.162638
-0.127131
-0.0836298
-0.0355474
0.0131289
0.058297
0.0948347
0.119811
0.131657
0.130768
0.118198
0.0973465
0.00915164
0.0136902
0.0175912
0.0210692
0.0230006
0.0224921
0.0182589
0.00913759
-0.0054465
-0.0256545
-0.0510339
-0.0804219
-0.111977
-0.143301
-0.171652
-0.194237
-0.208522
-0.212545
-0.205188
-0.186378
-0.157172
-0.119702
-0.0769703
-0.0325548
0.00981025
0.0455758
0.0719353
0.0872464
0.0915926
0.0856576
0.0722048
0.0138719
0.0202385
0.0261633
0.0319361
0.036419
0.038834
0.0377761
0.0319279
0.0206518
0.00355832
-0.0192047
-0.046841
-0.0779128
-0.11042
-0.141974
-0.170038
-0.192187
-0.206386
-0.21123
-0.206139
-0.191454
-0.16843
-0.139102
-0.106073
-0.0721943
-0.0407188
-0.0141559
0.00574006
0.0185629
0.0242479
0.0243739
0.0150436
0.0222043
0.0293855
0.0370327
0.0441197
0.0501147
0.0535437
0.0529437
0.0475402
0.0366186
0.0198742
-0.00246011
-0.0295822
-0.0601424
-0.0923529
-0.124155
-0.153408
-0.17811
-0.196594
-0.207698
-0.210886
-0.206294
-0.194689
-0.177365
-0.155961
-0.132029
-0.107582
-0.0843934
-0.0633579
-0.0453868
-0.0303117
0.0095202
0.0150361
0.0209872
0.0280855
0.0355828
0.0433569
0.0500542
0.0542382
0.0550556
0.0515572
0.0430277
0.029122
0.00992943
-0.0139878
-0.041633
-0.0716578
-0.102466
-0.132348
-0.159629
-0.182793
-0.200606
-0.212212
-0.217171
-0.215475
-0.207494
-0.193108
-0.173636
-0.150644
-0.125312
-0.0991559
-0.0732464
-0.00389471
-0.00328519
-0.00225992
0.000249549
0.00393622
0.00924293
0.0152389
0.020836
0.0253181
0.0277885
0.0273748
0.0233476
0.0151966
0.00271107
-0.0139943
-0.0344772
-0.0579772
-0.0834578
-0.10967
-0.135217
-0.158648
-0.178572
-0.193744
-0.203167
-0.206162
-0.201334
-0.189162
-0.1707
-0.147074
-0.119911
-0.0910262
-0.0234262
-0.0307272
-0.0383831
-0.0449571
-0.050209
-0.0530333
-0.0536008
-0.0522551
-0.0492346
-0.0449619
-0.0400589
-0.0352821
-0.0314676
-0.02944
-0.0299396
-0.0335446
-0.0405865
-0.0510856
-0.0647121
-0.0807618
-0.0981906
-0.115689
-0.131788
-0.145001
-0.153973
-0.15662
-0.152513
-0.141923
-0.12556
-0.104607
-0.0810156
-0.044338
-0.0610847
-0.0798264
-0.0988701
-0.117422
-0.133716
-0.146892
-0.156186
-0.160974
-0.160763
-0.155473
-0.14547
-0.131562
-0.114936
-0.0970588
-0.0795369
-0.063941
-0.0516277
-0.0435803
-0.0402759
-0.0416198
-0.0469499
-0.0551169
-0.0646228
-0.0738251
-0.0804609
-0.0832304
-0.0814695
-0.0752202
-0.0648173
-0.0518439
-0.0600931
-0.0854679
-0.11521
-0.147618
-0.18145
-0.214399
-0.24445
-0.269511
-0.28775
-0.297419
-0.297374
-0.287225
-0.267423
-0.239251
-0.204715
-0.166357
-0.126989
-0.0894013
-0.0560696
-0.0289017
-0.00905011
0.00317747
0.00828975
0.00749563
0.00247428
-0.0045836
-0.0116255
-0.0170667
-0.0202023
-0.0204051
-0.0186525
-0.0643137
-0.0949485
-0.132701
-0.176204
-0.223973
-0.273372
-0.321301
-0.364308
-0.399136
-0.422632
-0.432396
-0.427067
-0.406522
-0.371927
-0.325637
-0.270961
-0.211821
-0.152336
-0.0964066
-0.047328
-0.00748348
0.0218427
0.0404934
0.049346
0.0500625
0.0448183
0.0362655
0.0267545
0.0176438
0.0103493
0.00444516
-0.0529262
-0.0835336
-0.123923
-0.17343
-0.230579
-0.292669
-0.355756
-0.415195
-0.466249
-0.504426
-0.526083
-0.528863
-0.511992
-0.476399
-0.424626
-0.360553
-0.288976
-0.215087
-0.143938
-0.0799321
-0.0264124
0.0146092
0.0425222
0.0580357
0.0629001
0.0595271
0.0510234
0.0402836
0.0291312
0.0194321
0.0110822
-0.0258109
-0.0505048
-0.0871243
-0.136001
-0.195909
-0.264341
-0.336863
-0.407959
-0.471531
-0.521989
-0.554646
-0.566277
-0.555508
-0.522992
-0.471331
-0.404765
-0.328676
-0.24899
-0.17153
-0.101417
-0.0425698
0.00261607
0.0333673
0.0504433
0.0558242
0.0523832
0.0435593
0.0325842
0.0215641
0.0124928
0.00537552
0.0125543
-0.00138341
-0.0285618
-0.0704315
-0.126203
-0.193758
-0.268564
-0.34465
-0.414836
-0.472802
-0.513124
-0.531939
-0.52739
-0.499853
-0.451865
-0.387796
-0.313303
-0.234673
-0.158112
-0.0890804
-0.0317425
0.0113879
0.0395578
0.0536752
0.0559708
0.0497515
0.0386626
0.026122
0.0144185
0.00552138
-0.000476391
0.0536668
0.052796
0.0383518
0.00787607
-0.0383681
-0.0987572
-0.169035
-0.243226
-0.313508
-0.373262
-0.416701
-0.439585
-0.439701
-0.417128
-0.374178
-0.315074
-0.245398
-0.171422
-0.0993795
-0.0347798
0.018157
0.0568695
0.0805793
0.0901962
0.087989
0.0772888
0.0617595
0.0448955
0.0291625
0.016571
0.00754261
0.0866838
0.0977595
0.095959
0.078188
0.0441989
-0.00489001
-0.0654228
-0.131885
-0.196419
-0.252588
-0.294649
-0.318256
-0.320957
-0.302461
-0.26463
-0.211194
-0.147252
-0.0786517
-0.0113124
0.0494236
0.0993359
0.135698
0.157427
0.165035
0.160365
0.146015
0.125364
0.101849
0.0781456
0.0565188
0.0381525
0.100828
0.11926
0.126564
0.119611
0.0977638
0.0616995
0.014203
-0.0401562
-0.0942692
-0.142419
-0.179365
-0.200969
-0.204646
-0.189648
-0.1571
-0.109824
-0.0519498
0.0115732
0.0755258
0.134959
0.185676
0.224592
0.249933
0.261273
0.259414
0.245302
0.221596
0.191446
0.157718
0.123134
0.0900858
0.0880765
0.106669
0.116979
0.116592
0.104685
0.0816041
0.0490334
0.0100971
-0.0297811
-0.0662229
-0.0950317
-0.112653
-0.116544
-0.105432
-0.0794343
-0.0400148
0.0102052
0.0677227
0.128498
0.188303
0.243094
0.289335
0.324249
0.345993
0.353734
0.345973
0.324131
0.290714
0.248616
0.201056
0.151868
0.0454232
0.0559481
0.062173
0.0631738
0.0581992
0.047395
0.0311447
0.0106406
-0.011388
-0.0325753
-0.0503864
-0.0623261
-0.0661661
-0.0601542
-0.0432062
-0.015046
0.0237322
0.0716517
0.126414
0.184988
0.243808
0.299027
0.346817
0.383686
0.406806
0.411819
0.398417
0.36801
0.323207
0.267489
0.206016
-0.0235942
-0.0284485
-0.0325575
-0.0347174
-0.0353363
-0.0343601
-0.0328237
-0.0318729
-0.0323792
-0.0346241
-0.0383521
-0.0426534
-0.0459894
-0.0463132
-0.0413212
-0.0287803
-0.00688214
0.0254149
0.0681055
0.119912
0.178256
0.239394
0.298736
0.351289
0.392227
0.41446
0.415634
0.395629
0.356345
0.301063
0.235757
-0.108765
-0.13356
-0.151842
-0.159929
-0.157661
-0.144978
-0.124363
-0.0994876
-0.0753883
-0.0554237
-0.0420822
-0.0364927
-0.0382085
-0.0451979
-0.054126
-0.0608479
-0.0610501
-0.0509267
-0.0278145
0.00924749
0.0592253
0.119069
0.183997
0.248026
0.30473
0.344948
0.364254
0.360721
0.335137
0.290023
0.231392
-0.19528
-0.240629
-0.273647
-0.288183
-0.283395
-0.259145
-0.219235
-0.169747
-0.119883
-0.0761299
-0.0438553
-0.0264526
-0.0248687
-0.0374423
-0.0601752
-0.0873453
-0.112387
-0.128855
-0.131384
-0.116549
-0.0834302
-0.033813
0.0280151
0.0958114
0.162252
0.217128
0.254259
0.269908
0.263509
0.236345
0.193659
-0.264131
-0.325964
-0.370597
-0.390022
-0.382743
-0.348517
-0.292104
-0.221439
-0.149064
-0.0840482
-0.0342159
-0.00500535
0.00121785
-0.0145281
-0.0480678
-0.0927329
-0.140388
-0.182585
-0.211746
-0.222249
-0.211204
-0.17883
-0.128356
-0.0655252
0.00229632
0.0650161
0.11537
0.148192
0.161603
0.155469
0.133657
-0.300701
-0.371165
-0.421729
-0.44331
-0.433964
-0.393305
-0.326548
-0.242555
-0.155694
-0.0765175
-0.0143638
0.0239498
0.0349483
0.0189124
-0.0202811
-0.0758004
-0.138914
-0.200203
-0.250828
-0.283713
-0.294438
-0.281744
-0.247538
-0.196496
-0.135248
-0.0727551
-0.0165054
0.0275845
0.0566593
0.0693346
0.0678621
-0.292798
-0.361065
-0.409822
-0.430164
-0.419986
-0.37902
-0.31196
-0.227384
-0.139361
-0.0583224
0.00635791
0.0476201
0.0615519
0.0478342
0.00964904
-0.0468695
-0.113588
-0.181486
-0.241836
-0.287324
-0.312921
-0.316423
-0.298536
-0.262596
-0.213901
-0.159534
-0.106247
-0.0598354
-0.023465
0.000734676
0.013659
-0.242011
-0.298397
-0.338764
-0.355362
-0.34644
-0.311303
-0.254353
-0.182451
-0.107269
-0.0375411
0.0187817
0.0555956
0.0693381
0.0593947
0.0280482
-0.0199302
-0.078025
-0.138857
-0.195133
-0.240552
-0.270531
-0.282677
-0.276909
-0.255281
-0.221511
-0.180516
-0.137598
-0.0974804
-0.063057
-0.0365114
-0.0178327