# vtk DataFile Version 2.0
Func
ASCII
DATASET RECTILINEAR_GRID
DIMENSIONS 31 31 31
X_COORDINATES 31 double
-9.67742
-9.03226
-8.3871
-7.74194
-7.09677
-6.45161
-5.80645
-5.16129
-4.51613
-3.87097
-3.22581
-2.58065
-1.93548
-1.29032
-0.645161
0
0.645161
1.29032
1.93548
2.58065
3.22581
3.87097
4.51613
5.16129
5.80645
6.45161
7.09677
7.74194
8.3871
9.03226
9.67742
Y_COORDINATES 31 double
-9.67742
-9.03226
-8.3871
-7.74194
-7.09677
-6.45161
-5.80645
-5.16129
-4.51613
-3.87097
-3.22581
-2.58065
-1.93548
-1.29032
-0.645161
0
0.645161
1.29032
1.93548
2.58065
3.22581
3.87097
4.51613
5.16129
5.80645
6.45161
7.09677
7.74194
8.3871
9.03226
9.67742
Z_COORDINATES 31 double
-9.67742
-9.03226
-8.3871
-7.74194
-7.09677
-6.45161
-5.80645
-5.16129
-4.51613
-3.87097
-3.22581
-2.58065
-1.93548
-1.29032
-0.645161
0
0.645161
1.29032
1.93548
2.58065
3.22581
3.87097
4.51613
5.16129
5.80645
6.45161
7.09677
7.74194
8.3871
9.03226
9.67742
POINT_DATA 29791
SCALARS data double 1
LOOKUP_TABLE default
0.105818
0.135471
0.161944
0.181937
0.194591
0.198691
0.195056
0.184988
0.17133
0.155817
0.139988
0.124924
0.111125
0.0984498
0.0862081
0.0733237
0.0585861
0.0409056
0.0195585
-0.00559853
-0.0340073
-0.064386
-0.0948547
-0.123121
-0.146808
-0.162595
-0.168781
-0.164356
-0.150666
-0.128692
-0.102196
0.142433
0.18129
0.214709
0.238746
0.252191
0.253862
0.245235
0.228295
0.207465
0.185455
0.164585
0.146397
0.131465
0.119329
0.10864
0.0974295
0.0835112
0.0648897
0.0401518
0.0088079
-0.0285191
-0.0700525
-0.113044
-0.154065
-0.189485
-0.214206
-0.225736
-0.222388
-0.20566
-0.177049
-0.141121
0.153834
0.193858
0.226871
0.24854
0.257796
0.253933
0.238757
0.215278
0.188972
0.163327
0.141227
0.124477
0.113561
0.10759
0.104485
0.101356
0.0950185
0.0825377
0.0617384
0.0316488
-0.00724516
-0.0529497
-0.102176
-0.150713
-0.19401
-0.225821
-0.242658
-0.242597
-0.226852
-0.196951
-0.157985
0.136848
0.169868
0.195208
0.208561
0.209423
0.197418
0.175183
0.146433
0.117015
0.0908427
0.0710541
0.0594769
0.0563839
0.0604451
0.0689625
0.078305
0.084501
0.0838558
0.0735335
0.0520538
0.0195841
-0.0219958
-0.0693192
-0.117931
-0.162925
-0.197754
-0.218432
-0.222426
-0.210801
-0.184695
-0.149198
0.103471
0.124816
0.138643
0.141004
0.132014
0.111818
0.0834911
0.0511707
0.0204939
-0.00456995
-0.0209268
-0.0268879
-0.0223973
-0.00906577
0.0100853
0.0310788
0.0495821
0.0615336
0.0637312
0.0543263
0.0331196
0.00163297
-0.037108
-0.0789523
-0.119242
-0.151902
-0.172904
-0.179585
-0.172642
-0.152742
-0.124527
0.0727863
0.083942
0.0882068
0.0818827
0.0655264
0.03957
0.00723835
-0.0272696
-0.0588139
-0.0836117
-0.0987489
-0.102676
-0.095412
-0.0785647
-0.0550769
-0.0287927
-0.00390065
0.0156473
0.0266774
0.0272403
0.0168801
-0.0032991
-0.030826
-0.0621981
-0.0934317
-0.119391
-0.136482
-0.142256
-0.137198
-0.12162
-0.0996683
0.0580508
0.0648005
0.0651815
0.0556234
0.0367505
0.00894605
-0.0247436
-0.0603664
-0.0932926
-0.120022
-0.137822
-0.145176
-0.141967
-0.129488
-0.110215
-0.0874248
-0.0647108
-0.0454828
-0.0325079
-0.0275381
-0.0310902
-0.0423979
-0.0595763
-0.0799022
-0.100273
-0.116646
-0.126214
-0.127073
-0.119723
-0.104406
-0.0847175
0.0649304
0.0744903
0.0779056
0.0714339
0.055384
0.0297671
-0.00278198
-0.0387342
-0.0737564
-0.104589
-0.128581
-0.144104
-0.150715
-0.149176
-0.141265
-0.129448
-0.116476
-0.104974
-0.0970704
-0.0941039
-0.0964586
-0.103541
-0.113926
-0.125585
-0.136255
-0.142835
-0.143443
-0.136886
-0.123892
-0.104918
-0.0831866
0.0871715
0.104535
0.115659
0.116458
0.106713
0.0859117
0.0562244
0.0207411
-0.0162406
-0.0515977
-0.0826605
-0.107605
-0.125605
-0.136873
-0.142492
-0.144148
-0.143781
-0.143254
-0.144049
-0.147038
-0.152375
-0.15949
-0.167229
-0.17405
-0.178317
-0.17758
-0.170772
-0.157362
-0.138366
-0.114592
-0.089009
0.111859
0.137695
0.157049
0.165539
0.162476
0.146924
0.120713
0.086643
0.0491489
0.0113175
-0.0241266
-0.0552021
-0.0808261
-0.100857
-0.115949
-0.127307
-0.136367
-0.144503
-0.152766
-0.161694
-0.171232
-0.180755
-0.189197
-0.19524
-0.197569
-0.194065
-0.184148
-0.167707
-0.145908
-0.119826
-0.0921829
0.125123
0.155611
0.179504
0.192397
0.193435
0.181568
0.158542
0.127091
0.0917856
0.0557073
0.0215659
-0.00867571
-0.0339539
-0.0541404
-0.0698896
-0.0823849
-0.0930177
-0.103091
-0.113568
-0.12489
-0.136913
-0.14894
-0.159865
-0.168356
-0.173104
-0.17208
-0.164771
-0.151111
-0.132152
-0.108982
-0.0839509
0.118226
0.146851
0.169144
0.181106
0.182129
0.171454
0.151007
0.12364
0.0938729
0.0647067
0.0386639
0.0174216
0.00167777
-0.00885788
-0.0152801
-0.0192
-0.0223929
-0.0264752
-0.0326359
-0.0414468
-0.0527988
-0.0659472
-0.0796626
-0.0924373
-0.102737
-0.108498
-0.108905
-0.103594
-0.0932215
-0.0785953
-0.0615082
0.0909386
0.111319
0.12615
0.132251
0.129624
0.118135
0.100033
0.0783391
0.0572029
0.039373
0.026947
0.0210381
0.0216775
0.0278533
0.037742
0.0490443
0.0593756
0.0666224
0.0692348
0.0664208
0.0582102
0.0453979
0.0293749
0.0118992
-0.00517169
-0.0197221
-0.0304571
-0.0365318
-0.038053
-0.0353656
-0.0295773
0.0508763
0.0593011
0.0634661
0.0612776
0.0534996
0.0407611
0.0255875
0.0110309
0.000520647
-0.00368603
-0.000152662
0.0114621
0.0303642
0.0547249
0.0819641
0.109128
0.133303
0.151989
0.163396
0.166629
0.161728
0.149597
0.131811
0.110361
0.0873841
0.0649756
0.0448388
0.0282375
0.0155583
0.00688995
0.00178984
0.00966454
0.00629481
0.000321587
-0.00923234
-0.0209354
-0.0335105
-0.0443937
-0.0507901
-0.0502857
-0.0413555
-0.0233988
0.0030732
0.0364699
0.0742892
0.11344
0.150639
0.182817
0.207473
0.222933
0.228496
0.224428
0.211855
0.192542
0.168628
0.142354
0.115679
0.090408
0.0679317
0.0488632
0.0334818
0.0218116
-0.0221252
-0.0337521
-0.0461784
-0.0594621
-0.071801
-0.0815835
-0.0865531
-0.0845246
-0.0742672
-0.0551673
-0.0275296
0.00734349
0.0472627
0.0893809
0.130533
0.167617
0.197952
0.219564
0.231376
0.233258
0.225967
0.21097
0.190208
0.16582
0.139908
0.114149
0.0900166
0.0685946
0.0503399
0.0353561
0.0238124
-0.038871
-0.0536071
-0.0674265
-0.0798076
-0.0889523
-0.093308
-0.0912577
-0.0815149
-0.0640473
-0.0392177
-0.00818325
0.0271395
0.0642616
0.100395
0.132782
0.159029
0.177375
0.186873
0.187462
0.179912
0.165666
0.146607
0.124787
0.102176
0.0804689
0.060915
0.0442255
0.0307608
0.0204553
0.0128944
0.00805964
-0.0411168
-0.0543134
-0.0651723
-0.0729532
-0.0761754
-0.0736849
-0.0647023
-0.0489601
-0.0274935
-0.00156604
0.0269765
0.0558484
0.0825721
0.104774
0.120483
0.128387
0.12799
0.119665
0.104587
0.0845675
0.0617861
0.0385007
0.016766
-0.00179563
-0.016115
-0.0255076
-0.0303054
-0.0311448
-0.0288274
-0.0244731
-0.0185094
-0.0339966
-0.0430178
-0.0487265
-0.050441
-0.0471573
-0.038304
-0.0239357
-0.00470781
0.0175262
0.0408122
0.0628613
0.0812755
0.0938367
0.0988022
0.095158
0.0827852
0.0625044
0.0359995
0.00562254
-0.0258864
-0.0557466
-0.0814794
-0.101185
-0.113733
-0.118803
-0.116376
-0.107881
-0.094988
-0.0792295
-0.0623922
-0.0453439
-0.02404
-0.0286468
-0.0294991
-0.0261143
-0.0179505
-0.00501658
0.0120014
0.0318126
0.0520745
0.0704509
0.0844947
0.0919234
0.0909217
0.0804201
0.0602951
0.0314569
-0.00420463
-0.0440003
-0.0847358
-0.123071
-0.155922
-0.180829
-0.19621
-0.201504
-0.197144
-0.183803
-0.163827
-0.139712
-0.113508
-0.0874272
-0.0626158
-0.0160835
-0.0177482
-0.015769
-0.00987737
0.000146229
0.0138678
0.0302988
0.0479103
0.0642369
0.0769115
0.08361
0.0823383
0.0717232
0.051259
0.0214607
-0.0161061
-0.0589438
-0.103865
-0.147337
-0.185878
-0.216474
-0.236936
-0.246124
-0.24404
-0.231736
-0.210515
-0.183278
-0.152962
-0.1218
-0.0920756
-0.0649335
-0.0116799
-0.0123633
-0.0100162
-0.0045316
0.00416803
0.0154543
0.0283887
0.0416014
0.0528639
0.0601077
0.0613711
0.0550601
0.0402057
0.0166692
-0.0147387
-0.0522574
-0.0933181
-0.134796
-0.173356
-0.205832
-0.229619
-0.242997
-0.245307
-0.237006
-0.219536
-0.194655
-0.165377
-0.134636
-0.104505
-0.0769948
-0.0529666
-0.00940179
-0.0104497
-0.00946724
-0.00646121
-0.00135155
0.0052618
0.0127684
0.0202584
0.026049
0.0286236
0.0265518
0.0186948
0.0044116
-0.0162786
-0.0425978
-0.0730106
-0.105347
-0.13702
-0.165319
-0.187738
-0.202307
-0.207853
-0.204143
-0.191901
-0.172676
-0.148409
-0.121818
-0.0954443
-0.0709509
-0.0498531
-0.0325513
-0.00654091
-0.0081758
-0.00900107
-0.00913652
-0.00843329
-0.00730394
-0.00589201
-0.00449728
-0.00404119
-0.0053486
-0.00923545
-0.0163792
-0.0271724
-0.0416008
-0.0591541
-0.0788068
-0.0990917
-0.118248
-0.13443
-0.145957
-0.151555
-0.15056
-0.143018
-0.129701
-0.111982
-0.0916713
-0.0708956
-0.0515548
-0.0348015
-0.0215979
-0.0118747
-0.00102778
-0.002517
-0.00443936
-0.00708573
-0.0102472
-0.0140814
-0.0182695
-0.0225088
-0.0268694
-0.0314676
-0.03651
-0.0422459
-0.0488821
-0.0564961
-0.0649492
-0.0738358
-0.082491
-0.0900526
-0.0955741
-0.0981757
-0.0972032
-0.0923647
-0.0838085
-0.0721399
-0.0583399
-0.0438032
-0.0299249
-0.0178866
-0.00837644
-0.00189694
0.00194369
0.00745677
0.00721787
0.00546112
0.0016492
-0.00400608
-0.0114193
-0.0199286
-0.0287522
-0.0371538
-0.0446318
-0.0508628
-0.0557312
-0.0592979
-0.0617434
-0.0632818
-0.064077
-0.0641846
-0.0635312
-0.0619333
-0.0591573
-0.0549996
-0.0493689
-0.0423503
-0.0342397
-0.0255139
-0.0169556
-0.00924586
-0.0029217
0.00165283
0.00425629
0.00535895
0.0169603
0.0186734
0.0181326
0.014499
0.00792929
-0.00131791
-0.0124112
-0.0242878
-0.0355874
-0.0453682
-0.0529207
-0.057857
-0.0601218
-0.0599585
-0.0578267
-0.0542961
-0.0499363
-0.0452312
-0.0405246
-0.0360063
-0.0317305
-0.0276578
-0.0237131
-0.01984
-0.0160227
-0.0123876
-0.00903713
-0.00603489
-0.0035835
-0.00180786
-0.000354499
0.0250916
0.0288695
0.030052
0.027537
0.0213864
0.0119308
2.60873e-06
-0.013261
-0.026143
-0.0374723
-0.046319
-0.0521216
-0.0547259
-0.0543687
-0.0516048
-0.0471947
-0.0419659
-0.0366906
-0.0319864
-0.0282525
-0.0256479
-0.0241062
-0.0233879
-0.0231503
-0.0230088
-0.0225458
-0.0214875
-0.0196211
-0.0171158
-0.0141174
-0.0105562
0.0289232
0.0341367
0.0367382
0.0356142
0.0307195
0.0224119
0.0113363
-0.00147707
-0.0142711
-0.0258684
-0.035302
-0.0419485
-0.0455811
-0.046367
-0.0448105
-0.0416525
-0.0377325
-0.033861
-0.0307058
-0.0287085
-0.0280414
-0.0286066
-0.0300793
-0.0319803
-0.0337548
-0.0346805
-0.0343179
-0.0323857
-0.0290477
-0.0245097
-0.019012
0.0272427
0.0327451
0.0360301
0.0360996
0.0328514
0.0264926
0.0175583
0.0068151
-0.00424034
-0.0146085
-0.0234408
-0.0301567
-0.0344948
-0.0365229
-0.0365992
-0.0352968
-0.0332922
-0.0312568
-0.0297578
-0.0291773
-0.0296669
-0.0311359
-0.0332843
-0.0356596
-0.037735
-0.0387648
-0.0383501
-0.0361667
-0.0324253
-0.0273342
-0.0213306
0.0210112
0.025572
0.0285903
0.0293319
0.0276607
0.0235997
0.0175051
0.00990517
0.00182699
-0.00602386
-0.0130249
-0.0187209
-0.0228641
-0.0254308
-0.0266031
-0.0267228
-0.0262196
-0.0255385
-0.02507
-0.0250902
-0.0257228
-0.0269247
-0.0285038
-0.030153
-0.0315085
-0.0320308
-0.0314045
-0.0294158
-0.0262436
-0.0219938
-0.0172056
0.148439
0.188898
0.223709
0.248658
0.262514
0.264061
0.254774
0.236724
0.214511
0.190953
0.168474
0.148691
0.132222
0.118616
0.106498
0.0938543
0.0784435
0.0582229
0.0317539
-0.00144393
-0.0406955
-0.0841314
-0.128877
-0.171353
-0.207781
-0.232819
-0.24388
-0.239318
-0.220691
-0.189538
-0.150878
0.197541
0.249817
0.292942
0.321787
0.334815
0.331207
0.313453
0.284547
0.25156
0.218803
0.189861
0.167002
0.150883
0.140476
0.133308
0.125903
0.114431
0.0953759
0.0661623
0.0257115
-0.025262
-0.084186
-0.146899
-0.208113
-0.262143
-0.300866
-0.320655
-0.318879
-0.296995
-0.257146
-0.20557
0.211888
0.264987
0.306499
0.330872
0.336819
0.324347
0.296497
0.257824
0.216999
0.179512
0.149776
0.130412
0.121881
0.122429
0.128404
0.134854
0.136372
0.127956
0.105835
0.0681695
0.0154522
-0.0494201
-0.121461
-0.194184
-0.26049
-0.310501
-0.339081
-0.34323
-0.323871
-0.283178
-0.228079
0.18799
0.231089
0.261574
0.274086
0.268086
0.243962
0.206103
0.160183
0.115424
0.0779575
0.0525564
0.041845
0.0459203
0.0623142
0.0863847
0.112017
0.13258
0.141907
0.13523
0.109961
0.0661439
0.00655263
-0.0636563
-0.137575
-0.207518
-0.263147
-0.298508
-0.309571
-0.297132
-0.262876
-0.213627
0.141979
0.169111
0.183816
0.181406
0.162174
0.127106
0.0813173
0.0311747
-0.014425
-0.0492854
-0.0687204
-0.0703449
-0.0544208
-0.0238755
0.0161298
0.0589379
0.0973662
0.12471
0.13568
0.127181
0.0987662
0.0527417
-0.00617803
-0.0714783
-0.135793
-0.189505
-0.226497
-0.24245
-0.237748
-0.213436
-0.175514
0.1011
0.11491
0.117156
0.103643
0.0752268
0.0331467
-0.0172272
-0.069378
-0.115165
-0.148686
-0.165543
-0.163586
-0.143215
-0.107379
-0.0611441
-0.0109772
0.0361602
0.0737511
0.0965882
0.101479
0.0876555
0.0568682
0.0130682
-0.0381439
-0.0903641
-0.135414
-0.167729
-0.183232
-0.182126
-0.16497
-0.136867
0.0833801
0.0921495
0.090175
0.0734205
0.0427929
-0.000636737
-0.0517796
-0.104479
-0.151355
-0.186944
-0.207142
-0.209868
-0.195337
-0.166039
-0.12635
-0.0818828
-0.0386875
-0.00243924
0.0223042
0.0326913
0.0279096
0.00924672
-0.0201899
-0.055943
-0.0929165
-0.124624
-0.146637
-0.155655
-0.151978
-0.136047
-0.112121
0.0964167
0.110288
0.113823
0.102603
0.077064
0.0377404
-0.0109518
-0.0635223
-0.113003
-0.154305
-0.183454
-0.198211
-0.198307
-0.185439
-0.162926
-0.13515
-0.106876
-0.0825744
-0.0658159
-0.0588049
-0.0621365
-0.0747765
-0.0943107
-0.117341
-0.14006
-0.15747
-0.166536
-0.165054
-0.15365
-0.133026
-0.106947
0.131073
0.156928
0.172373
0.172278
0.156326
0.124361
0.0800254
0.0280918
-0.0244726
-0.0727791
-0.112819
-0.142044
-0.159599
-0.166326
-0.164474
-0.157219
-0.148074
-0.14033
-0.136561
-0.138261
-0.145681
-0.157849
-0.172804
-0.187933
-0.200441
-0.206396
-0.204056
-0.192288
-0.172098
-0.144628
-0.11341
0.16878
0.20732
0.23511
0.246351
0.240056
0.215536
0.175837
0.125243
0.0709876
0.0179237
-0.0298254
-0.0694381
-0.0996209
-0.120631
-0.134005
-0.14213
-0.147701
-0.15322
-0.160581
-0.170759
-0.183706
-0.19841
-0.213112
-0.225627
-0.233741
-0.234133
-0.225894
-0.208631
-0.183558
-0.15216
-0.117775
0.189715
0.235305
0.269918
0.287522
0.286877
0.267152
0.231207
0.183194
0.130607
0.0783214
0.0304925
-0.0100178
-0.0418624
-0.065222
-0.0815298
-0.0930386
-0.102277
-0.111559
-0.122585
-0.136158
-0.152102
-0.16934
-0.186127
-0.200362
-0.209968
-0.21188
-0.205399
-0.19033
-0.167784
-0.139262
-0.107732
0.181382
0.224606
0.257122
0.273341
0.272351
0.253672
0.220399
0.176879
0.130561
0.0862433
0.0478659
0.0179516
-0.00259218
-0.0144505
-0.0195843
-0.0207538
-0.0209364
-0.0228078
-0.0283209
-0.0384236
-0.0529827
-0.0708777
-0.0902489
-0.108833
-0.124344
-0.13379
-0.136115
-0.130802
-0.118539
-0.100472
-0.078897
0.143407
0.175079
0.197054
0.204853
0.198398
0.177955
0.147108
0.110514
0.0750763
0.0452575
0.0244307
0.0143678
0.0150937
0.0249729
0.0410925
0.0598043
0.0773542
0.0904431
0.0966729
0.094829
0.0849519
0.0682243
0.0466952
0.0229155
-0.000459039
-0.0204821
-0.0354454
-0.0442173
-0.0468967
-0.04404
-0.0370442
0.0866228
0.101375
0.10822
0.104214
0.0903445
0.0677811
0.0405436
0.0134325
-0.0077458
-0.0192268
-0.0185661
-0.00506489
0.0201681
0.0543882
0.0936703
0.13351
0.169481
0.197811
0.215829
0.222222
0.217074
0.201727
0.178465
0.15012
0.119674
0.0899371
0.0631832
0.0410994
0.0241022
0.0121829
0.00486099
0.0276804
0.025673
0.0181623
0.00379282
-0.0154969
-0.0377813
-0.0589475
-0.0744795
-0.0801151
-0.0731569
-0.0523668
-0.0182636
0.0269223
0.079514
0.134901
0.188166
0.234725
0.270867
0.294149
0.303576
0.299584
0.283832
0.258855
0.227651
0.193296
0.158305
0.125078
0.0954567
0.0700638
0.0491262
0.0328362
-0.018099
-0.0318538
-0.0483953
-0.0678007
-0.0875729
-0.105421
-0.117662
-0.120599
-0.11176
-0.0897889
-0.0547759
-0.00839354
0.046264
0.105032
0.163216
0.216191
0.25997
0.291641
0.309647
0.313841
0.305363
0.286355
0.259572
0.22797
0.194371
0.160798
0.129136
0.100772
0.0761057
0.0551346
0.0383008
-0.0422717
-0.0603743
-0.0785953
-0.0962636
-0.110836
-0.12015
-0.121457
-0.112336
-0.0921061
-0.0608558
-0.0199341
0.0280747
0.0796269
0.130634
0.176987
0.215091
0.24229
0.25716
0.259608
0.250774
0.232765
0.208277
0.180185
0.151147
0.123348
0.0981106
0.0761698
0.0578705
0.0429814
0.0308457
0.0217165
-0.0451004
-0.0607361
-0.0742134
-0.08467
-0.089963
-0.0884928
-0.0787562
-0.059809
-0.032544
0.0016215
0.0403201
0.080412
0.118351
0.150633
0.174276
0.187231
0.188657
0.179013
0.159967
0.134115
0.104577
0.0745316
0.046789
0.023447
0.00573616
-0.00592488
-0.0123591
-0.0146437
-0.0138696
-0.0115711
-0.00796445
-0.0335043
-0.0426163
-0.047955
-0.0488831
-0.04391
-0.0322479
-0.013647
0.0114801
0.04106
0.0726625
0.10327
0.129575
0.148398
0.157145
0.154206
0.139248
0.113311
0.0787176
0.0387893
-0.00258634
-0.0414904
-0.0744994
-0.0990995
-0.113966
-0.119001
-0.114835
-0.10392
-0.0887906
-0.0713822
-0.0540435
-0.0374804
-0.0167393
-0.0186648
-0.0160262
-0.00860429
0.00441962
0.0230039
0.0464333
0.0733467
0.100987
0.126369
0.146253
0.157508
0.157553
0.144778
0.118873
0.080992
0.0337115
-0.0192149
-0.0732852
-0.123793
-0.166441
-0.197898
-0.216173
-0.22082
-0.212866
-0.194023
-0.168085
-0.138738
-0.108515
-0.0802656
-0.0549562
-0.00216695
0.00119138
0.00904454
0.0212081
0.0379872
0.0586964
0.0821332
0.106557
0.129057
0.146604
0.156148
0.154994
0.141229
0.114088
0.0742102
0.0237203
-0.0339143
-0.0942183
-0.152211
-0.203003
-0.242427
-0.267577
-0.277134
-0.27149
-0.25259
-0.223105
-0.187614
-0.150402
-0.114225
-0.0819882
-0.0545574
0.00701311
0.0127741
0.0221967
0.0348256
0.0506887
0.0687621
0.0878692
0.106451
0.121945
0.131736
0.133297
0.124523
0.104108
0.0718519
0.0288565
-0.0224355
-0.0784183
-0.134677
-0.18649
-0.229402
-0.259822
-0.275502
-0.275804
-0.261766
-0.23588
-0.201469
-0.163236
-0.125431
-0.0906505
-0.0614403
-0.0382373
0.0115553
0.0173369
0.025393
0.0351421
0.0465492
0.0585794
0.0704863
0.0813089
0.0892299
0.0923873
0.0889851
0.0775573
0.0572684
0.0281572
-0.00869482
-0.0511327
-0.0960803
-0.139845
-0.178547
-0.208623
-0.227326
-0.233127
-0.225929
-0.207093
-0.179206
-0.145787
-0.111045
-0.0786532
-0.0507703
-0.0293257
-0.0141747
0.0141668
0.0188371
0.0241271
0.0294097
0.0347236
0.0392931
0.0430076
0.0456954
0.0465375
0.0445838
0.0388417
0.0284424
0.0128591
-0.00790431
-0.0331566
-0.0614593
-0.090709
-0.118343
-0.141652
-0.158162
-0.16602
-0.164309
-0.153215
-0.134046
-0.109036
-0.0813769
-0.0543441
-0.0306976
-0.0120385
0.000365936
0.00715671
0.0172716
0.0208871
0.0235092
0.0244566
0.0238882
0.0214496
0.017667
0.0131259
0.00807733
0.00246609
-0.00395314
-0.011553
-0.020695
-0.0315839
-0.0441088
-0.0577376
-0.0715027
-0.0840859
-0.0939903
-0.0997887
-0.100386
-0.0952518
-0.0845575
-0.0692208
-0.0507766
-0.0316155
-0.0138832
0.000673415
0.0109725
0.0162753
0.0174355
0.0216879
0.0249262
0.0258523
0.0236767
0.0186549
0.0108993
0.00141189
-0.0086515
-0.0180766
-0.0261812
-0.0326122
-0.0373759
-0.0407681
-0.0432588
-0.0453272
-0.0473075
-0.0492786
-0.0510286
-0.0520943
-0.0518782
-0.0498032
-0.0454726
-0.0388023
-0.0300977
-0.0200172
-0.00984309
-0.000620764
0.0068041
0.0117324
0.0137261
0.0134795
0.0262035
0.0296001
0.0299015
0.0261255
0.0185737
0.00775731
-0.00508434
-0.0185015
-0.0305843
-0.0401671
-0.0465035
-0.0493708
-0.049048
-0.0462223
-0.041823
-0.0368325
-0.0321007
-0.0282152
-0.025436
-0.0237057
-0.0227183
-0.0220286
-0.0211828
-0.019833
-0.0177912
-0.0151808
-0.0121576
-0.00890569
-0.0059025
-0.00350366
-0.00143126
0.0295348
0.033451
0.0339814
0.0299912
0.0217612
0.010046
-0.0039109
-0.0186299
-0.0318534
-0.0421961
-0.0487172
-0.0510666
-0.0494974
-0.0447877
-0.038086
-0.0307109
-0.023926
-0.0187552
-0.0158514
-0.0154339
-0.0172994
-0.0208944
-0.0254411
-0.0300793
-0.0339889
-0.0363444
-0.0367191
-0.0349034
-0.0312858
-0.0262636
-0.0201299
0.029562
0.0338949
0.0349362
0.0316255
0.0241795
0.0134727
0.00049075
-0.0134777
-0.0262097
-0.0363575
-0.0429756
-0.0456714
-0.0446371
-0.0405883
-0.0346355
-0.0281021
-0.0223022
-0.0183471
-0.0169926
-0.0185422
-0.0228247
-0.0292412
-0.0368756
-0.0446387
-0.0514218
-0.0558721
-0.0572998
-0.0553997
-0.0504771
-0.0429914
-0.0337057
0.0260523
0.0303515
0.0319003
0.0298013
0.0241798
0.0157056
0.00518585
-0.0064455
-0.0173333
-0.026354
-0.0326912
-0.0359645
-0.0362669
-0.0341272
-0.0304151
-0.0262018
-0.0225776
-0.0204876
-0.0205947
-0.0231823
-0.0281199
-0.0348862
-0.0426556
-0.0504164
-0.057118
-0.0613713
-0.0625469
-0.0602303
-0.0547612
-0.0465637
-0.0366231
0.0197849
0.0233859
0.0250573
0.0242242
0.0208507
0.0152486
0.00797322
-0.000318694
-0.00837237
-0.0153967
-0.0207886
-0.0242233
-0.0256881
-0.0254702
-0.0241006
-0.0222652
-0.020685
-0.020004
-0.0206915
-0.0229671
-0.026767
-0.0317502
-0.0373528
-0.0428632
-0.0475326
-0.0503457
-0.0507746
-0.0485281
-0.0439003
-0.0371451
-0.0292613
0.171511
0.21622
0.253132
0.277335
0.287609
0.283119
0.265778
0.238829
0.208311
0.178066
0.151296
0.130043
0.11492
0.105047
0.0982526
0.0914728
0.0813238
0.0646889
0.0392776
0.00411341
-0.0401895
-0.0913746
-0.145779
-0.198739
-0.245246
-0.278289
-0.294143
-0.290848
-0.26984
-0.232896
-0.186091
0.2266
0.283574
0.328202
0.354552
0.361171
0.347979
0.318167
0.276432
0.231964
0.190564
0.156924
0.13387
0.121971
0.119474
0.122635
0.126339
0.124986
0.1134
0.0876885
0.0459917
-0.0111058
-0.0804933
-0.15687
-0.233362
-0.302473
-0.353625
-0.381572
-0.383201
-0.359585
-0.313157
-0.251512
0.241221
0.297877
0.339015
0.358369
0.354839
0.329482
0.286295
0.232086
0.178103
0.131666
0.0985096
0.0818523
0.0819204
0.0959122
0.118441
0.142365
0.159935
0.163966
0.14895
0.112002
0.053404
-0.0233098
-0.111749
-0.203455
-0.289064
-0.355722
-0.396129
-0.406684
-0.387693
-0.34164
-0.276877
0.21128
0.255517
0.282934
0.287546
0.269273
0.229695
0.17458
0.112166
0.0544147
0.00945012
-0.0165793
-0.0205194
-0.00269468
0.0330852
0.0800723
0.129555
0.172154
0.199158
0.203775
0.182183
0.134134
0.063066
-0.0243394
-0.119012
-0.210768
-0.286133
-0.336702
-0.357501
-0.348661
-0.311987
-0.255725
0.156878
0.182535
0.191631
0.179071
0.145831
0.0941689
0.0308488
-0.0350993
-0.0921214
-0.132054
-0.148925
-0.139954
-0.105996
-0.0515149
0.0160261
0.0871919
0.151897
0.200768
0.226402
0.224405
0.193995
0.138111
0.0629654
-0.0227925
-0.109316
-0.184037
-0.238328
-0.266745
-0.268967
-0.245972
-0.204898
0.110512
0.121508
0.117067
0.0927446
0.0501974
-0.00809383
-0.0750022
-0.14143
-0.196776
-0.233307
-0.245483
-0.230888
-0.190611
-0.12919
-0.0539892
0.0257964
0.100393
0.160723
0.199569
0.212506
0.198444
0.159712
0.101634
0.0317614
-0.0412376
-0.106649
-0.156558
-0.185737
-0.19372
-0.180864
-0.153073
0.0932873
0.0998888
0.092199
0.0659198
0.0227242
-0.0351937
-0.101079
-0.166408
-0.221538
-0.259354
-0.274742
-0.265426
-0.23229
-0.179307
-0.112958
-0.041316
0.0270581
0.0842325
0.123904
0.142169
0.13796
0.113082
0.0718242
0.0202993
-0.0344954
-0.084075
-0.122009
-0.144012
-0.149808
-0.139599
-0.118166
0.113916
0.128371
0.129142
0.111352
0.076019
0.0246283
-0.0369829
-0.101202
-0.158895
-0.20345
-0.229945
-0.235914
-0.22163
-0.190038
-0.146236
-0.0966823
-0.0482347
-0.00721856
0.0213907
0.0345752
0.0315816
0.0139079
-0.0150538
-0.05058
-0.0873761
-0.118975
-0.140779
-0.149916
-0.146561
-0.13124
-0.108081
0.160876
0.191305
0.207981
0.204991
0.182332
0.140616
0.0846041
0.0209872
-0.0410597
-0.0951756
-0.13637
-0.161753
-0.170803
-0.165318
-0.148964
-0.126583
-0.103362
-0.0840489
-0.0722929
-0.0701732
-0.0780026
-0.0943969
-0.116606
-0.141001
-0.163692
-0.179727
-0.186245
-0.181812
-0.16712
-0.143256
-0.114065
0.211299
0.258283
0.290987
0.302495
0.291872
0.259044
0.207935
0.144632
0.0787235
0.0165709
-0.0366206
-0.0775248
-0.104966
-0.119886
-0.12493
-0.123824
-0.120606
-0.118937
-0.121539
-0.129808
-0.143698
-0.161832
-0.181823
-0.200718
-0.215527
-0.222236
-0.21919
-0.206017
-0.18373
-0.153878
-0.120133
0.240891
0.297363
0.339041
0.35854
0.354506
0.326632
0.278553
0.21622
0.149645
0.0853038
0.0285514
-0.0171035
-0.0502701
-0.071635
-0.0835553
-0.0894333
-0.0929598
-0.0974471
-0.105297
-0.117655
-0.134328
-0.153927
-0.174193
-0.192431
-0.205997
-0.211354
-0.207312
-0.193886
-0.172078
-0.143522
-0.111545
0.23428
0.288651
0.328235
0.346039
0.341016
0.313175
0.266463
0.207075
0.145087
0.0869746
0.0379511
0.00125195
-0.0221141
-0.0332888
-0.0351123
-0.0314528
-0.02641
-0.0236206
-0.0257129
-0.0339662
-0.0482404
-0.0671417
-0.0883662
-0.109151
-0.126758
-0.137854
-0.141042
-0.136053
-0.123535
-0.104772
-0.0824048
0.19083
0.231822
0.258936
0.266434
0.25421
0.223042
0.177559
0.124322
0.0728282
0.0292246
-0.00186332
-0.0179973
-0.0191127
-0.00737188
0.0133651
0.0382851
0.0624695
0.081632
0.0926869
0.0940837
0.0858656
0.0694781
0.0473915
0.0226204
-0.00177391
-0.0225891
-0.0378557
-0.0466239
-0.0490079
-0.0456659
-0.038272
0.123572
0.144538
0.153563
0.146737
0.125208
0.0906904
0.0484798
0.00526188
-0.0307568
-0.0542353
-0.0616192
-0.0517026
-0.0257128
0.0129342
0.0592517
0.107494
0.15203
0.188097
0.212361
0.22321
0.220771
0.20668
0.183657
0.15499
0.124042
0.0937934
0.0667175
0.0444014
0.0271928
0.015025
0.00724699
0.0527628
0.0537543
0.0456363
0.0264239
-0.00158965
-0.0359129
-0.0710024
-0.100592
-0.118358
-0.120257
-0.104193
-0.0704193
-0.0214913
0.0380895
0.102565
0.16576
0.22193
0.266464
0.296371
0.310479
0.30937
0.29507
0.27058
0.239338
0.204751
0.169374
0.135711
0.105515
0.0792894
0.0572184
0.039448
-0.00268489
-0.0156897
-0.0344321
-0.059331
-0.0874068
-0.115822
-0.139451
-0.153107
-0.152681
-0.135797
-0.102003
-0.0529779
0.00766577
0.0748388
0.142701
0.205467
0.258158
0.297179
0.320651
0.32846
0.322049
0.304017
0.277596
0.246127
0.212647
0.179007
0.147041
0.11794
0.0919382
0.0689705
0.0495612
-0.0319105
-0.0499137
-0.0702152
-0.0923236
-0.113187
-0.130172
-0.139233
-0.136804
-0.121005
-0.0912631
-0.0487052
0.00384101
0.0621839
0.121306
0.176072
0.221946
0.255573
0.275167
0.280625
0.273379
0.256013
0.231753
0.203914
0.175408
0.148437
0.123842
0.102095
0.083117
0.066486
0.051442
0.0384571
-0.034441
-0.0489584
-0.0627578
-0.0751473
-0.0835537
-0.0860362
-0.0800557
-0.063895
-0.0376124
-0.00229187
0.0396661
0.084724
0.128659
0.167143
0.196387
0.213718
0.217962
0.209587
0.190584
0.164094
0.133856
0.103588
0.0764357
0.0545405
0.038875
0.028982
0.0235247
0.0207116
0.0192629
0.0175118
0.0156184
-0.0179844
-0.0236836
-0.0264793
-0.0260302
-0.0205696
-0.00914306
0.00923746
0.0346049
0.065479
0.0995305
0.133563
0.163828
0.186551
0.198503
0.197558
0.183106
0.156225
0.119596
0.0771513
0.0335047
-0.00673987
-0.0396829
-0.0626541
-0.0745545
-0.0758649
-0.0685274
-0.0557554
-0.0410761
-0.0265848
-0.0147535
-0.00572673
0.00643421
0.0108447
0.0192629
0.0314055
0.0481782
0.0695122
0.0951702
0.124005
0.153758
0.181439
0.203607
0.216762
0.217887
0.204979
0.177507
0.136668
0.0853843
0.0280292
-0.0301003
-0.0834867
-0.127174
-0.157488
-0.172502
-0.17228
-0.158736
-0.135302
-0.106739
-0.0779142
-0.0514825
-0.0303589
-0.0147522
0.0292825
0.0418304
0.0583626
0.0779744
0.100877
0.126176
0.152974
0.179627
0.203758
0.222347
0.232222
0.230469
0.214934
0.184697
0.140421
0.0845071
0.0209646
-0.0449736
-0.107468
-0.160834
-0.20034
-0.222902
-0.227475
-0.215197
-0.189128
-0.153954
-0.115352
-0.0788478
-0.0472871
-0.023557
-0.00759641
0.0452002
0.0623083
0.0824171
0.10419
0.127423
0.150753
0.173228
0.193376
0.209274
0.218413
0.218278
0.206707
0.182332
0.144969
0.0958949
0.0379413
-0.0246794
-0.0867841
-0.142831
-0.187659
-0.217229
-0.22925
-0.223494
-0.201864
-0.168065
-0.127537
-0.0861075
-0.0491992
-0.019492
0.000559335
0.0115331
0.0530401
0.0711285
0.0906122
0.109977
0.128891
0.145925
0.160559
0.171971
0.179102
0.180303
0.173909
0.158513
0.133319
0.0984462
0.0551793
0.00604124
-0.0453449
-0.0946102
-0.137165
-0.168844
-0.18654
-0.188731
-0.175739
-0.14975
-0.114489
-0.0754507
-0.0378963
-0.00649769
0.0164737
0.0292055
0.0328126
0.0541188
0.0705229
0.0865238
0.100648
0.112657
0.12143
0.127119
0.129773
0.129382
0.125272
0.116626
0.102651
0.0828422
0.0572222
0.0265809
-0.00741297
-0.0422676
-0.0749016
-0.102029
-0.120657
-0.128592
-0.124854
-0.109905
-0.0856709
-0.0552723
-0.0235042
0.00548356
0.0281548
0.042739
0.0480441
0.0454812
0.0503439
0.0635004
0.0746769
0.0825631
0.0871505
0.0878874
0.0856023
0.0811784
0.0756108
0.0690971
0.0615078
0.0524454
0.0414244
0.0280789
0.0124065
-0.00505497
-0.0231678
-0.0402801
-0.054444
-0.0637523
-0.0667025
-0.0625255
-0.0513963
-0.034501
-0.0138788
0.00703157
0.025465
0.0391239
0.0466916
0.0473985
0.0425329
0.0431909
0.052398
0.0585521
0.0605522
0.0586672
0.0530333
0.0449773
0.0360029
0.0278796
0.021431
0.0169658
0.0142499
0.0126245
0.0111964
0.0091
0.00574152
0.000976345
-0.00483107
-0.010867
-0.0160488
-0.0192676
-0.019646
-0.0167555
-0.010751
-0.00234794
0.00676083
0.0152071
0.0217886
0.0255183
0.0257852
0.0233074
0.0336892
0.0387761
0.0404429
0.0377272
0.031153
0.0215002
0.0103244
-0.000562772
-0.00896881
-0.0137547
-0.0144307
-0.0112436
-0.00509906
0.00262369
0.0103446
0.0165775
0.0201992
0.0206232
0.0178653
0.0124907
0.00546704
-0.00204312
-0.00891284
-0.0142494
-0.0175056
-0.0186202
-0.0177849
-0.0153934
-0.0122332
-0.00896701
-0.00569186
0.0237261
0.0253538
0.0236837
0.0179143
0.00873129
-0.00263388
-0.014658
-0.025518
-0.0329561
-0.0357813
-0.0335011
-0.0264384
-0.0156788
-0.00289141
0.0099369
0.020814
0.0280582
0.0305384
0.0278188
0.0201947
0.00861315
-0.0054959
-0.0204518
-0.0345665
-0.0463551
-0.0543616
-0.0579637
-0.057059
-0.052335
-0.0445836
-0.0347767
0.0147098
0.0141234
0.0106318
0.00370366
-0.00594598
-0.016884
-0.0278771
-0.0373466
-0.0432822
-0.0446382
-0.0410165
-0.032782
-0.0210266
-0.00741001
0.00607346
0.0173818
0.0247329
0.0268547
0.0231567
0.0138115
-0.000280371
-0.0176232
-0.0363379
-0.0544092
-0.0699364
-0.0807194
-0.085737
-0.0847558
-0.0783128
-0.0672852
-0.0532133
0.00836347
0.00700219
0.00338329
-0.00284779
-0.0110712
-0.0200401
-0.0288232
-0.0362521
-0.0407702
-0.0415728
-0.0383674
-0.0314675
-0.0217709
-0.0106387
0.000282838
0.00928914
0.0148678
0.0159116
0.0118735
0.00285595
-0.010398
-0.0265958
-0.0440654
-0.0609603
-0.0754958
-0.0854623
-0.0899006
-0.0883806
-0.0814424
-0.0698547
-0.0553405
0.00509016
0.00404783
0.00146019
-0.00276776
-0.00832267
-0.0144404
-0.0204845
-0.025684
-0.0290292
-0.0299795
-0.0283254
-0.0242496
-0.0183201
-0.0114196
-0.004633
0.000900255
0.00415249
0.00435387
0.00110421
-0.00555646
-0.0151403
-0.0267636
-0.0392581