# vtk DataFile Version 2.0
Func
ASCII
DATASET RECTILINEAR_GRID
DIMENSIONS 31 31 31
X_COORDINATES 31 double
-9.67742
-9.03226
-8.3871
-7.74194
-7.09677
-6.45161
-5.80645
-5.16129
-4.51613
-3.87097
-3.22581
-2.58065
-1.93548
-1.29032
-0.645161
0
0.645161
1.29032
1.93548
2.58065
3.22581
3.87097
4.51613
5.16129
5.80645
6.45161
7.09677
7.74194
8.3871
9.03226
9.67742
Y_COORDINATES 31 double
-9.67742
-9.03226
-8.3871
-7.74194
-7.09677
-6.45161
-5.80645
-5.16129
-4.51613
-3.87097
-3.22581
-2.58065
-1.93548
-1.29032
-0.645161
0
0.645161
1.29032
1.93548
2.58065
3.22581
3.87097
4.51613
5.16129
5.80645
6.45161
7.09677
7.74194
8.3871
9.03226
9.67742
Z_COORDINATES 31 double
-9.67742
-9.03226
-8.3871
-7.74194
-7.09677
-6.45161
-5.80645
-5.16129
-4.51613
-3.87097
-3.22581
-2.58065
-1.93548
-1.29032
-0.645161
0
0.645161
1.29032
1.93548
2.58065
3.22581
3.87097
4.51613
5.16129
5.80645
6.45161
7.09677
7.74194
8.3871
9.03226
9.67742
POINT_DATA 29791
SCALARS data double 1
LOOKUP_TABLE default
0.00577625
0.0049173
0.00300246
-0.000512506
-0.00505516
-0.0101284
-0.0146491
-0.0173824
-0.0172418
-0.013519
-0.00593306
0.00525017
0.0191951
0.0345449
0.0495602
0.0623233
0.0709785
0.0739789
0.0703085
0.0596599
0.0425259
0.0201932
-0.00539635
-0.0318431
-0.0566056
-0.0765113
-0.0894813
-0.094157
-0.0911521
-0.0808849
-0.066174
0.015085
0.0159398
0.0147779
0.0109447
0.00514122
-0.00195239
-0.0087055
-0.0132591
-0.013823
-0.00923661
0.00102306
0.0166585
0.0365073
0.0586073
0.0804002
0.0990354
0.111733
0.116155
0.110743
0.0949917
0.0695836
0.0363881
-0.00174116
-0.0412627
-0.0784019
-0.108369
-0.128217
-0.135933
-0.132228
-0.117895
-0.0964936
0.0261616
0.0295492
0.0299839
0.026683
0.0203961
0.0119287
0.00329863
-0.00313157
-0.00492482
-0.000496691
0.0109454
0.0291672
0.0528392
0.0796071
0.10634
0.129506
0.145627
0.151745
0.145846
0.127209
0.0965854
0.0561943
0.00948831
-0.0392151
-0.085282
-0.122844
-0.148138
-0.158927
-0.155804
-0.139688
-0.114712
0.0348536
0.0403759
0.0421944
0.039452
0.0328578
0.0232668
0.0129107
0.00442596
0.000711274
0.00367312
0.0143616
0.0327008
0.0573979
0.0860088
0.115198
0.141143
0.160029
0.168559
0.164424
0.146685
0.11598
0.0745338
0.0259151
-0.0253478
-0.0743518
-0.11493
-0.143029
-0.156099
-0.154705
-0.139646
-0.115193
0.0364116
0.0421084
0.0437178
0.0403811
0.0327406
0.0216698
0.0094224
-0.00131722
-0.00747972
-0.00699717
0.00136743
0.0177402
0.0410322
0.0689889
0.0984338
0.125653
0.146878
0.158783
0.158949
0.14624
0.121019
0.0851754
0.0419031
-0.00464764
-0.049923
-0.0882281
-0.115661
-0.12972
-0.130754
-0.119308
-0.0992902
0.0281944
0.031212
0.0301617
0.0242959
0.0142483
0.000951106
-0.0134556
-0.0264126
-0.0349876
-0.0371271
-0.0315248
-0.0178878
0.0029577
0.0290991
0.0577446
0.0855596
0.109094
0.125226
0.131583
0.126876
0.111114
0.0856346
0.0529403
0.0164048
-0.0201931
-0.0521662
-0.076102
-0.0897371
-0.0931577
-0.0865574
-0.0731866
0.0115833
0.00963866
0.00405273
-0.00564649
-0.0187603
-0.0342483
-0.0501948
-0.0643172
-0.0741198
-0.0777605
-0.0740316
-0.0625861
-0.0440318
-0.0199072
0.00748142
0.0353316
0.060692
0.0808269
0.0935579
0.0975472
0.0924749
0.0790853
0.0590698
0.0348535
0.00923726
-0.0143634
-0.0332252
-0.0454498
-0.0508663
-0.0493275
-0.0431263
-0.00860957
-0.0161276
-0.026421
-0.0395532
-0.0547152
-0.0707442
-0.0860452
-0.0987603
-0.107077
-0.109575
-0.105353
-0.0941937
-0.0766267
-0.0539035
-0.0278713
-0.000767464
0.0250401
0.0473255
0.0642592
0.0746154
0.0779072
0.0744272
0.065173
0.051703
0.0358909
0.0199236
0.00580023
-0.00499154
-0.0120893
-0.0150996
-0.0153463
-0.0265044
-0.0381033
-0.0511718
-0.0652436
-0.0794267
-0.0924891
-0.103276
-0.110534
-0.113334
-0.110905
-0.102888
-0.0894144
-0.0711263
-0.0491295
-0.0248948
-0.000109903
0.0234944
0.0443219
0.0610708
0.0728554
0.0792822
0.0804678
0.0769869
0.0697784
0.0599959
0.0488275
0.0376094
0.0274187
0.0186985
0.0119345
0.0066266
-0.0383744
-0.0512698
-0.0639248
-0.0752404
-0.0843232
-0.0899771
-0.0916203
-0.0888007
-0.0816362
-0.0702294
-0.054993
-0.0366308
-0.0160892
0.00552262
0.0270197
0.0472411
0.0651441
0.0798887
0.0908971
0.0978811
0.100845
0.100061
0.0960138
0.0893363
0.0807305
0.07069
0.0599946
0.0493112
0.0390309
0.029553
0.0209369
-0.0449214
-0.0566801
-0.0661655
-0.0715579
-0.0720454
-0.066577
-0.0552583
-0.0386147
-0.0179526
0.00556167
0.0305476
0.0555512
0.0791705
0.100183
0.117632
0.130886
0.139657
0.143987
0.14421
0.140868
0.134633
0.126218
0.116304
0.105478
0.0942088
0.0825535
0.0708095
0.0592151
0.0479648
0.0372079
0.0272629
-0.0510391
-0.0611736
-0.0668153
-0.0653591
-0.0560988
-0.038186
-0.0124711
0.0194446
0.054942
0.0916719
0.12717
0.159134
0.185631
0.205285
0.217362
0.221796
0.219124
0.210381
0.196939
0.180324
0.162034
0.143381
0.125386
0.108711
0.0936792
0.0800412
0.0676089
0.0561309
0.0454777
0.0354263
0.0263051
-0.0629511
-0.0735133
-0.0773713
-0.0711176
-0.0540917
-0.0256246
0.0127183
0.0582839
0.107063
0.155516
0.200094
0.237655
0.265762
0.282916
0.288657
0.283534
0.268965
0.24702
0.220151
0.190887
0.161554
0.13405
0.109698
0.0891874
0.0726302
0.0594507
0.0488932
0.0401286
0.0326112
0.0256866
0.0195503
-0.0840794
-0.0987631
-0.10478
-0.0979914
-0.0776635
-0.0432244
0.0031639
0.0579564
0.115782
0.172037
0.222231
0.262516
0.290075
0.303395
0.302365
0.288193
0.263182
0.230399
0.193287
0.155256
0.119306
0.0877387
0.0619894
0.0425865
0.0292526
0.0209524
0.0162427
0.0136391
0.0121427
0.0106804
0.00930068
-0.111904
-0.133972
-0.145919
-0.143065
-0.124507
-0.089686
-0.0411807
0.0168404
0.0778417
0.136432
0.187455
0.226617
0.250932
0.259033
0.251239
0.22943
0.196719
0.157029
0.114594
0.0734545
0.0370087
0.00767555
-0.0132686
-0.0257048
-0.0305026
-0.0293259
-0.0243926
-0.0178633
-0.0111598
-0.00569012
-0.00146469
-0.137738
-0.167779
-0.186979
-0.190454
-0.177129
-0.146441
-0.101191
-0.0458486
0.0122966
0.0674603
0.114214
0.148169
0.16645
0.168005
0.153654
0.125894
0.0885051
0.0460296
0.00319965
-0.0356375
-0.067016
-0.0887025
-0.0998417
-0.100925
-0.0935498
-0.0801185
-0.06361
-0.0467881
-0.0314005
-0.0190523
-0.00968041
-0.149927
-0.184647
-0.208692
-0.217415
-0.209709
-0.1851
-0.146441
-0.0981765
-0.047755
-0.000887552
0.0371823
0.0623634
0.0721794
0.0660589
0.0453378
0.0130249
-0.02666
-0.0688496
-0.108652
-0.141752
-0.16492
-0.176349
-0.175766
-0.164346
-0.144406
-0.119064
-0.0919061
-0.0661234
-0.0436449
-0.0261118
-0.0132818
-0.139169
-0.171989
-0.195208
-0.204887
-0.200141
-0.180768
-0.149536
-0.110597
-0.0708591
-0.0354965
-0.00912457
0.00482935
0.00453914
-0.00998164
-0.0369198
-0.0729296
-0.113617
-0.154113
-0.189696
-0.216376
-0.231379
-0.233442
-0.222883
-0.201469
-0.172061
-0.138296
-0.104088
-0.0727985
-0.046385
-0.0263809
-0.0123473
-0.103403
-0.126754
-0.142346
-0.147342
-0.141362
-0.12466
-0.0998309
-0.0705302
-0.0424781
-0.019933
-0.00653389
-0.0047779
-0.0156886
-0.0386488
-0.0714781
-0.110711
-0.152062
-0.190963
-0.223135
-0.245118
-0.25469
-0.251111
-0.235145
-0.208905
-0.175484
-0.138689
-0.102403
-0.0698847
-0.0429973
-0.0230845
-0.00961134
-0.0497667
-0.0580928
-0.0609715
-0.0568856
-0.0461371
-0.029545
-0.00946099
0.0110865
0.0279955
0.0381471
0.0390568
0.0292624
0.00855393
-0.0219358
-0.0598342
-0.101793
-0.143891
-0.182102
-0.21277
-0.233052
-0.241252
-0.237005
-0.221266
-0.196155
-0.164613
-0.130179
-0.0963627
-0.0660751
-0.0410443
-0.0224283
-0.00980668
0.00753724
0.0154508
0.0264427
0.0407444
0.0573816
0.0750108
0.0915863
0.104756
0.112135
0.111759
0.102265
0.0831328
0.0548203
0.0187845
-0.0226285
-0.0664086
-0.109196
-0.147645
-0.178787
-0.200364
-0.211074
-0.210693
-0.200066
-0.180964
-0.155818
-0.127461
-0.0987677
-0.0721603
-0.0492738
-0.0311764
-0.0178362
0.0526279
0.073099
0.0946736
0.116581
0.137387
0.155424
0.168995
0.176392
0.176677
0.168843
0.152396
0.127484
0.0949472
0.0563011
0.0136376
-0.0305415
-0.0735382
-0.112709
-0.145715
-0.170744
-0.186675
-0.193173
-0.190678
-0.180325
-0.16377
-0.142793
-0.119518
-0.0958469
-0.0734375
-0.0534251
-0.0364369
0.0741201
0.100045
0.125875
0.150306
0.171792
0.188637
0.199498
0.203182
0.199637
0.188433
0.169536
0.143349
0.110731
0.072965
0.0316952
-0.0111745
-0.0535987
-0.0935391
-0.129117
-0.158749
-0.181257
-0.195947
-0.202641
-0.201656
-0.193744
-0.17946
-0.160199
-0.137414
-0.112928
-0.0881087
-0.0644389
0.0692772
0.0929171
0.116255
0.137983
0.1568
0.171277
0.180368
0.18318
0.179849
0.170055
0.153733
0.131097
0.102657
0.0692109
0.0318324
-0.00816755
-0.0492846
-0.0898948
-0.128343
-0.163023
-0.192474
-0.215462
-0.23107
-0.238749
-0.238361
-0.229268
-0.212256
-0.188463
-0.15999
-0.128546
-0.09654
0.0443392
0.0601227
0.0763538
0.0921829
0.106805
0.119245
0.128635
0.134121
0.135387
0.131776
0.122755
0.107969
0.0872953
0.060892
0.029233
-0.0068735
-0.0462859
-0.0875629
-0.129025
-0.168825
-0.205049
-0.235836
-0.259525
-0.274774
-0.280688
-0.275651
-0.26001
-0.234727
-0.20221
-0.164524
-0.124922
0.0110367
0.0171367
0.0251128
0.0348678
0.0461577
0.0585062
0.0710732
0.0827839
0.0924647
0.0988067
0.100525
0.0964731
0.085768
0.0678957
0.0427971
0.0109219
-0.0267573
-0.0687727
-0.113232
-0.157906
-0.200366
-0.238148
-0.26895
-0.290804
-0.302269
-0.301086
-0.287331
-0.261889
-0.227404
-0.186207
-0.142173
-0.018299
-0.0201472
-0.0184902
-0.0126497
-0.00241111
0.0121511
0.0301072
0.0500186
0.0697848
0.0873738
0.100714
0.107888
0.107315
0.0979235
0.0792622
0.051576
0.0158109
-0.0264295
-0.0729828
-0.121252
-0.168384
-0.211469
-0.247782
-0.274977
-0.291308
-0.294271
-0.283793
-0.260719
-0.227767
-0.187347
-0.143615
-0.0357046
-0.0416869
-0.0429299
-0.0381122
-0.0267688
-0.00873815
0.0149191
0.0424198
0.0709884
0.0980476
0.120956
0.137259
0.144923
0.142531
0.129424
0.105763
0.0725251
0.031432
-0.015176
-0.0644987
-0.113483
-0.159044
-0.19832
-0.228867
-0.248884
-0.255969
-0.249988
-0.231725
-0.20376
-0.168359
-0.129595
-0.0391127
-0.0454303
-0.0466646
-0.0411716
-0.0284404
-0.0082584
0.0182964
0.0493079
0.0818328
0.113162
0.140525
0.161362
0.173555
0.175639
0.166924
0.147554
0.118484
0.0813937
0.0385522
-0.0073554
-0.0534331
-0.0967912
-0.134776
-0.165154
-0.186295
-0.196178
-0.194643
-0.182407
-0.161643
-0.134273
-0.103839
-0.031913
-0.0363529
-0.03637
-0.0303473
-0.0178927
0.00122018
0.0259456
0.0545887
0.0845906
0.113585
0.13916
0.159099
0.171587
0.175376
0.169895
0.155282
0.132359
0.102551
0.0677591
0.0302097
-0.00772262
-0.0436931
-0.0755717
-0.101585
-0.120455
-0.130707
-0.132226
-0.125468
-0.112141
-0.0936548
-0.0727665
-0.0199648
-0.021983
-0.0210034
-0.0156628
-0.00578463
0.00879279
0.0273008
0.0484702
0.0705282
0.091803
0.110595
0.125354
0.134819
0.138135
0.134922
0.125297
0.109848
0.0895746
0.0657948
0.0400383
0.0139221
-0.0109695
-0.0332097
-0.0516207
-0.0653642
-0.073552
-0.0760586
-0.0731401
-0.0659619
-0.0553876
-0.0432882
0.0164383
0.0177075
0.0170405
0.0136437
0.00817807
0.00125463
-0.00557346
-0.010508
-0.0118058
-0.00834753
0.000373358
0.0140707
0.031624
0.0511431
0.0701681
0.0859678
0.0958937
0.097743
0.0900846
0.072525
0.0458376
0.0119516
-0.0262511
-0.065233
-0.101253
-0.12951
-0.147154
-0.152318
-0.145841
-0.128618
-0.104358
0.0333786
0.0382611
0.0398165
0.0369962
0.0305794
0.0214255
0.0117916
0.00429811
0.00174133
0.00588695
0.017602
0.0365839
0.0612885
0.0890159
0.116201
0.138847
0.153057
0.155563
0.144217
0.118391
0.0791627
0.0293038
-0.0270063
-0.0846186
-0.138063
-0.180154
-0.207023
-0.215994
-0.207899
-0.184157
-0.149625
0.0521222
0.0616143
0.0665229
0.0655304
0.0594338
0.049278
0.0377702
0.028166
0.0241943
0.0281928
0.0413936
0.0635811
0.0929861
0.126383
0.159438
0.187246
0.204982
0.208568
0.195275
0.16423
0.116651
0.0558381
-0.0131686
-0.0841233
-0.150356
-0.203137
-0.237516
-0.250627
-0.243063
-0.216474
-0.176569
0.0658645
0.0789882
0.0866304
0.0873069
0.0817476
0.07107
0.0582226
0.0467568
0.0410208
0.0437458
0.0564737
0.0791694
0.110089
0.145872
0.181911
0.212922
0.233653
0.239608
0.227706
0.196829
0.148095
0.0848559
0.012346
-0.0628761
-0.133763
-0.191179
-0.229789
-0.246269
-0.241239
-0.216235
-0.177195
0.067414
0.0808279
0.0884097
0.0887063
0.0823733
0.0705678
0.0562204
0.0428727
0.0350263
0.0355532
0.0461737
0.0670629
0.0967063
0.131978
0.168485
0.201114
0.224715
0.234807
0.228214
0.203604
0.161768
0.105629
0.0399263
-0.0292994
-0.0954924
-0.150233
-0.18837
-0.206642
-0.20543
-0.185919
-0.15351
0.0529995
0.0619871
0.0653659
0.0619367
0.0523942
0.0379856
0.0214762
0.00619418
-0.00367671
-0.00537652
0.00281514
0.0212162
0.048603
0.0822712
0.118336
0.152207
0.179198
0.195148
0.19699
0.18323
0.154206
0.112115
0.0607572
0.00510136
-0.0493759
-0.095736
-0.129445
-0.147536
-0.15012
-0.137883
-0.115247
0.0249961
0.0257062
0.0215866
0.0119498
-0.0023436
-0.019895
-0.0382175
-0.0543641
-0.0649056
-0.0674597
-0.0605337
-0.0438229
-0.0183238
0.0137197
0.0490589
0.0838288
0.114039
0.13608
0.147187
0.145822
0.131893
0.106788
0.0731894
0.0347445
-0.00444071
-0.0392862
-0.0661435
-0.082514
-0.0882463
-0.0835201
-0.0714209
-0.0087267
-0.0174938
-0.0297512
-0.0455037
-0.0636488
-0.0826141
-0.100299
-0.114301
-0.122272
-0.122472
-0.113898
-0.0964924
-0.0712059
-0.0399366
-0.00533611
0.0294897
0.0613474
0.0873308
0.105162
0.11346
0.1119
0.101243
0.0831952
0.060188
0.0350205
0.0109805
-0.00922062
-0.0236199
-0.031878
-0.0337842
-0.031103
-0.0386405
-0.0547492
-0.0724549
-0.0909797
-0.109014
-0.124874
-0.137008
-0.143783
-0.144163
-0.137327
-0.123051
-0.101795
-0.0746989
-0.0434936
-0.0103405
0.0223894
0.0523616
0.0775207
0.0962986
0.107762
0.111691
0.108574
0.0995035
0.0860221
0.0699031
0.0529723
0.0370724
0.0236244
0.0130322
0.00569394
0.000938536
-0.0584085
-0.0775378
-0.0958579
-0.111766
-0.123867
-0.130506
-0.130879
-0.124393
-0.111489
-0.092539
-0.068375
-0.0402416
-0.00970014
0.0215086
0.0516081
0.0789392
0.102097
0.120042
0.132172
0.138337
0.13882
0.134273
0.125614
0.113915
0.100281
0.0854996
0.0706708
0.0566624
0.0437942
0.0324128
0.0225708
-0.0684834
-0.0865788
-0.101041
-0.109418
-0.110367
-0.102415
-0.0856979
-0.0609102
-0.0301159
0.0048854
0.0419688
0.078895
0.113509
0.143944
0.168754
0.187016
0.198359
0.202938
0.201369
0.194598
0.183765
0.170059
0.154595
0.138312
0.121931
0.105548
0.0895904
0.0743382
0.05986
0.0462306
0.0338273
-0.0759225
-0.0916459
-0.100666
-0.0996506
-0.0873705
-0.0626443
-0.0266506
0.0184839
0.0689261
0.121296
0.172037
0.217805
0.255778
0.283936
0.301193
0.307436
0.303446
0.29074
0.271335
0.247481
0.221382
0.194967
0.169722
0.146596
0.12602
0.107555
0.0909214
0.0757135
0.0615982
0.0482143
0.0359527
-0.0902201
-0.105973
-0.111967
-0.103962
-0.0807887
-0.0415805
0.0114769
0.0748602
0.142851
0.210476
0.27275
0.32525
0.364541
0.38852
0.396547
0.389423
0.369181
0.338779
0.301704
0.261541
0.221562
0.1844
0.151846
0.124765
0.103183
0.0860752
0.0723055
0.0606518
0.0502671
0.0402737
0.0309174
-0.117142
-0.137902
-0.146193
-0.136906
-0.108797
-0.0612564
0.00269828
0.0783773
0.158184
0.235716
0.304746
0.359957
0.397477
0.415277
0.41329
0.393305
0.358633
0.313636
0.263169
0.21199
0.164227
0.122963
0.0900207
0.0659073
0.0499828
0.0404249
0.0350601
0.0317322
0.0290317
0.0255796
0.0214901
-0.153909
-0.184296
-0.200216
-0.195871
-0.169824
-0.121646
-0.0549164
0.0248872
0.10853
0.188548
0.257841
0.310542
0.342633
0.35237
0.340375
0.309443
0.264069
0.209837
0.152697
0.0982481
0.0510963
0.0143902
-0.0103931
-0.0234436
-0.0263506
-0.0219688
-0.0136343
-0.00446697
0.00359483
0.00877601
0.0112051
-0.188635
-0.229663
-0.255262
-0.259334
-0.240258
-0.197755
-0.135685
-0.0598673
0.0193805
0.0940689
0.15676
0.201506
0.224508
0.224538
0.202977
0.163546
0.111713
0.0539486
-0.00310372
-0.0534501
-0.0924491
-0.117294
-0.127195
-0.123299
-0.108311
-0.0862508
-0.0615795
-0.0382684
-0.0186679
-0.0047749
0.00374987
-0.204842
-0.252103
-0.284234
-0.295413
-0.284021
-0.250003
-0.197253
-0.131521
-0.0633474
-0.00059923
0.0495746
0.081679
0.0925183
0.0815741
0.0509907
0.00523199
-0.0495985
-0.106573
-0.158838
-0.200474
-0.227216
-0.236911
-0.229647
-0.207594
-0.174524
-0.135541
-0.0959828
-0.0604045
-0.0313883
-0.0109497
0.00161109
-0.18917
-0.233619
-0.264536
-0.277037
-0.269854
-0.243289
-0.201113
-0.148664
-0.0956802
-0.0492461
-0.0156019
0.000712796
-0.00256706
-0.0251293
-0.0641597
-0.114732
-0.170518
-0.224614
-0.270438
-0.302562
-0.317393
-0.313574
-0.292046
-0.255826
-0.209458
-0.158799
-0.109623
-0.0666846
-0.0325972
-0.0092173
0.00453646
-0.138562
-0.169749
-0.190113
-0.196297
-0.187749
-0.165274
-0.132407
-0.0938378
-0.0575259
-0.0292253
-0.0137714
-0.014378
-0.0321836
-0.0660466
-0.112673
-0.167022
-0.222975
-0.274118
-0.314547
-0.339625
-0.346567
-0.334759
-0.305762
-0.26305
-0.211452
-0.15702
-0.10543
-0.0612209
-0.0268701
-0.00397531
0.00877533
-0.0632024
-0.0735487
-0.0764837
-0.0704979
-0.0559848
-0.03431
-0.00868149
0.0170152
0.0372603
0.0479631
0.0459545
0.0294928
-0.00143048
-0.0449896
-0.0976875
-0.154734
-0.210627
-0.259804
-0.297326
-0.319487
-0.324272
-0.311593
-0.283248
-0.242662
-0.194372
-0.14395
-0.0964684
-0.0559048
-0.0245147
-0.00365473
0.00790686
0.0165232
0.0284079
0.0441825
0.0635639
0.0852445
0.107393
0.12723
0.14175
0.14803
0.143675
0.127141
0.0980296
0.0572478
0.00702149
-0.049276
-0.107443
-0.162886
-0.211125
-0.24829
-0.27157
-0.279541
-0.272314
-0.251486
-0.219919
-0.181333
-0.140156
-0.100505
-0.0655953
-0.0374865
-0.0174299
-0.00467988
0.0778549
0.106418
0.135897
0.164663
0.190803
0.212268
0.2268
0.232268
0.22793
0.212807
0.186622
0.149925
0.104134
0.0514914
-0.00507986
-0.0622106
-0.116368
-0.164182
-0.202775
-0.23004
-0.244848
-0.247147
-0.237925
-0.219075
-0.193125
-0.162857
-0.13129
-0.100863
-0.0735581
-0.0507399
-0.0325525
0.104653
0.139574
0.173558
0.204362
0.229956
0.248405
0.258016
0.257401
0.247134
0.2271
0.197687
0.159801
0.11485
0.0646854
0.0115119
-0.0422468
-0.0940857
-0.141593
-0.182627
-0.215465
-0.238928
-0.252458
-0.256135
-0.250638
-0.237144
-0.216547
-0.19084
-0.161818
-0.131563
-0.101779
-0.0737969
0.0934358
0.123682
0.152603
0.178147
0.198672
0.212652
0.218912
0.216539
0.206348
0.188385
0.16299
0.130773
0.0926041
0.0495971
0.00308261
-0.0454243
-0.0942535
-0.141643
-0.185818
-0.225057
-0.257795
-0.282705
-0.298798
-0.305489
-0.302648
-0.289351
-0.266783
-0.236307
-0.200264
-0.160856
-0.120707
0.0537957
0.0716623
0.0892646
0.10542
0.119208
0.129692
0.136038
0.13745
0.133992
0.125201
0.110709
0.0902723
0.0638218
0.0315181
-0.00619437
-0.0485427
-0.0943919
-0.142251
-0.190315
-0.236516
-0.278634
-0.314441
-0.341873
-0.359199
-0.365195
-0.357473
-0.336664
-0.303918
-0.261911
-0.213372
-0.162104
0.00321767
0.00655232
0.0117527
0.0188843
0.0278354
0.0382631
0.0494269
0.0602599
0.0694457
0.0755252
0.0769896
0.0724124
0.0605968
0.0407212
0.0124649
-0.0238962
-0.0674399
-0.1166
-0.169224
-0.222659
-0.273917
-0.31988
-0.357554
-0.384311
-0.398148
-0.395743
-0.377403
-0.344208
-0.299141
-0.245334
-0.18745
-0.0401091
-0.0482273
-0.0519935
-0.0501243
-0.0420784
-0.0277509
-0.0080097
0.0155569
0.0401453
0.0631715
0.0819209
0.0938003
0.0965827
0.0886369
0.0691041
0.0380135
-0.00368471
-0.0541527
-0.110774
-0.170294
-0.229055
-0.283261
-0.329286
-0.363957
-0.384849
-0.388304
-0.374459
-0.344374
-0.301174
-0.248143
-0.190348
-0.0647747
-0.0783781
-0.0856291
-0.0843168
-0.0735498
-0.052983
-0.0237293
0.0120722
0.050508
0.0881072
0.121246
0.146498
0.160948
0.162475
0.149953
0.123359
0.0837756
0.0333154
-0.0250435
-0.087656
-0.150491
-0.209436
-0.260626
-0.300734
-0.327258
-0.33673
-0.329197
-0.305661
-0.269161
-0.222832
-0.171619
-0.0679647
-0.08126
-0.0874385
-0.0839216
-0.069775
-0.0446515
-0.00977044
0.0324424
0.0777326
0.122341
0.162379
0.194206
0.214765
0.221869
0.214392
0.192358
0.15691
0.110209
0.0552439
-0.00439782
-0.0648155
-0.122096
-0.172624
-0.213341
-0.24199
-0.25568
-0.254401
-0.239072
-0.212307
-0.176785
-0.136769
-0.0550841
-0.0646813
-0.0678789
-0.0622533
-0.0470713
-0.0219719
0.0117364
0.0518332
0.0945584
0.136557
0.174382
0.204838
0.225274
0.233828
0.229578
0.212607
0.183958
0.145526
0.0998856
0.0500741
-0.000653312
-0.0490759
-0.092261
-0.127764
-0.153814
-0.168317
-0.17127
-0.163252
-0.146375
-0.122646
-0.0953283
-0.0351694
-0.0402561
-0.0408364
-0.0349793
-0.0222745
-0.0024289
0.0235315
0.0538632
0.0859274
0.117303
0.145513
0.168285
0.183747
0.190608
0.188257
0.176794
0.156998
0.130238
0.0983418
0.0634428
0.0277996
-0.00637439
-0.0370851
-0.0626909
-0.0820181
-0.0938188
-0.0979968
-0.0948609
-0.0859225
-0.0724819
-0.0566687
0.0306609
0.0354544
0.0374587
0.035518
0.0302286
0.0221651
0.0131168
0.00525707
0.000893673
0.00150323
0.00785309
0.0197751
0.0361026
0.0547375
0.0728838
0.0874016
0.0952329
0.0938367
0.0815813
0.0580656
0.0242759
-0.0174335
-0.0635818
-0.109925
-0.151991
-0.183931
-0.202363
-0.205418
-0.194099
-0.169705
-0.136618
0.0565089
0.067386
0.0737607
0.0740153
0.068793
0.0589293
0.0469364
0.0358993
0.0294541
0.0298614
0.0383535
0.0547986
0.0775975
0.103775
0.129314
0.149668
0.16039
0.157764
0.139383
0.10463
0.0548953
-0.00644668
-0.074377
-0.142762
-0.205114
-0.252755
-0.281152
-0.287715
-0.273361
-0.240076
-0.193687
0.0838278
0.101883
0.114041
0.118252
0.115082
0.105549
0.0925413
0.0798292
0.0721596
0.0724304
0.0822874
0.101706
0.128848
0.160169
0.190819
0.215265
0.228064
0.224646
0.202021
0.159364
0.0983047
0.0228801
-0.0608558
-0.145484
-0.223134
-0.283327
-0.320282
-0.331362
-0.317184
-0.280121
-0.227004
0.103042
0.126617
0.143486
0.151357
0.150653
0.142414
0.129706
0.116545
0.108328
0.108317
0.118439
0.138823
0.167635
0.201181
0.234331
0.261183
0.27589
0.273502
0.250728
0.206561
0.142594
0.0629848
-0.0259589
-0.116454
-0.200213
-0.266343
-0.308667
-0.324037
-0.313159
-0.278283
-0.226573
0.104276
0.128428
0.145784
0.154161
0.153896
0.146055
0.133601
0.12043
0.11196
0.111474
0.120971
0.140712
0.16905
0.202523
0.236258
0.264594
0.281885
0.283294
0.265528
0.227436
0.170311
0.0978726
0.0158817
-0.0684829
-0.147532
-0.211283
-0.253835
-0.272084
-0.266508
-0.23894
-0.195869
0.0828426
0.100777
0.112499
0.116288
0.112597
0.102607
0.089082
0.0755844
0.0669601
0.0662081
0.0751703
0.0941286
0.121656
0.1547
0.188938
0.219323
0.240783
0.24892
0.240647
0.214704
0.171931
0.115256
0.049379
-0.0197576
-0.0857305
-0.14035
-0.178486
-0.197293
-0.196993
-0.178814
-0.148024
0.0421982
0.0482128
0.0491866
0.0442057
0.0340453
0.0201064
0.00490773
-0.00847272
-0.0162708
-0.0160537
-0.0063868
0.0128536
0.0403754
0.0735567
0.108739
0.141678
0.1681
0.184265
0.187465
0.176434
0.151549
0.114834
0.0697096
0.0205939
-0.0276839
-0.0691395
-0.0997206
-0.117
-0.12096
-0.112192
-0.0943803
-0.00638368
-0.0143153
-0.0256008
-0.040156
-0.0567679
-0.0737601
-0.0889173
-0.0997758
-0.103975
-0.0998928
-0.0867555
-0.0648312
-0.0354705
-0.0010016
0.0355131
0.0706302
0.100939
0.123471
0.13606
0.137606
0.128218
0.109196
0.0828422
0.0521741
0.0205181
-0.00822943
-0.0311265
-0.0462321
-0.0533577
-0.0525967
-0.0460865
-0.0492218
-0.0684365
-0.0888316
-0.109272
-0.128164
-0.143616
-0.153873
-0.157296
-0.153097
-0.140711
-0.120283
-0.0927267
-0.0596804
-0.0233646
0.01363
0.0486097
0.0790588
0.102902
0.118716
0.125856
0.124507
0.115629
0.100805
0.0820327
0.0614709
0.0413397
0.023582
0.00964047
-0.000243849
-0.005895
-0.00819464
-0.0767573
-0.101299
-0.124391
-0.1439
-0.158045
-0.164894
-0.163393
-0.153017
-0.134626
-0.108955
-0.0773168
-0.0415062
-0.00365543
0.0339615
0.0691268
0.0998748
0.124653
0.142445
0.152828
0.155962
0.15253
0.143623
0.130588
0.114869
0.0978659
0.0806142
0.0642284
0.0496198
0.0369422
0.0263747
0.0178562
-0.0886229
-0.112455
-0.131814
-0.143643
-0.146207
-0.137751
-0.118173
-0.0883557
-0.0508862
-0.00802097
0.0375521
0.0829774
0.125493
0.162692
0.192718
0.21439
0.227257
0.23157
0.22819
0.218421
0.203822
0.186015
0.166502
0.146536
0.127053
0.108269
0.0905648
0.0742474
0.0592198
0.0454254
0.0331794
-0.09374
-0.114094
-0.126694
-0.127602
-0.115262
-0.0882797
-0.0476582
0.00411021
0.0625907
0.123847
0.183686
0.238109
0.283695
0.317931
0.339405
0.347866
0.344143
0.329974
0.307734
0.280106
0.249751
0.219019
0.189732
0.163064
0.139551
0.118702
0.100112
0.0833326
0.0678638
0.0532401
0.0398303
-0.105049
-0.124014
-0.131937
-0.123992
-0.0987751
-0.0553348
0.00424061
0.075845
0.15305
0.23021
0.301633
0.362223
0.407989
0.436442
0.446773
0.439827
0.417886
0.384319
0.343119
0.298405
0.253935
0.212723
0.176791
0.147077
0.123529
0.104801
0.0895073
0.0762514
0.0640076
0.0518213
0.0399784
-0.131406
-0.154716
-0.164034
-0.153672
-0.122217
-0.0691407
0.00258423
0.0874642
0.177028
0.264077
0.341607
0.40363
0.445796
0.465841
0.463737
0.441567
0.403142
0.353461
0.298062
0.242333
0.190891
0.147108
0.112863
0.0884976
0.0730183
0.0639238
0.0585926
0.0545104
0.0500686
0.0438424
0.036093
-0.171005
-0.20446
-0.221725
-0.216409
-0.18693
-0.133106
-0.0584819
0.0304796
0.123471
0.212122
0.288508
0.346116
0.380559
0.390037
0.375451
0.340158
0.289423
0.229697
0.167775
0.109954
0.0612896
0.0250723
0.00259531
-0.00680628
-0.00541435
0.00281124
0.0138392
0.0239856
0.0310882
0.0333653
0.0312487
-0.210202
-0.255543
-0.283642
-0.287807
-0.26626
-0.219113
-0.150168
-0.0663331
0.0208375
0.102396
0.170079
0.217361
0.240208
0.237527
0.211209
0.165789
0.107733
0.0445636
-0.0161199
-0.0676121
-0.10491
-0.125257
-0.128321
-0.116053
-0.0922019
-0.0623149
-0.0318003
-0.00537313
0.0143751
0.0254934
0.0288165
-0.228932
-0.281424
-0.317059
-0.329483
-0.316929
-0.279821
-0.221982
-0.150237
-0.076407
-0.00927322
0.0432743
0.0752876
0.083496
0.0677017
0.0307493
-0.0219077
-0.0830219
-0.144525
-0.198585
-0.238631
-0.260171
-0.261311
-0.242854
-0.208065
-0.162048
-0.11177
-0.0637092
-0.0232673
0.00674038
0.0244137
0.0311482
-0.210441
-0.259666
-0.293942
-0.308032
-0.300575
-0.272387
-0.227176
-0.171236
-0.115416
-0.0675518
-0.0344346
-0.0208619
-0.0289896
-0.0580265
-0.10434
-0.161945
-0.223352
-0.28056
-0.326099
-0.354028
-0.360702
-0.345215
-0.309422
-0.257621
-0.195849
-0.132002
-0.0730643
-0.024636
0.0104878
0.0306538
0.0378115
-0.150517
-0.184269
-0.206334
-0.21328
-0.204588
-0.181551
-0.147685
-0.108397
-0.0723703
-0.045815
-0.0338251
-0.0396151
-0.0640192
-0.105301
-0.159323
-0.220042
-0.280313
-0.332803
-0.370936
-0.389773
-0.386673
-0.361625
-0.317211
-0.258235
-0.191008
-0.123595
-0.0628015
-0.0138949
0.0205664
0.0392844
0.0445496
-0.0614261
-0.0709682
-0.0729706
-0.0661984
-0.0512365
-0.0298494
-0.00527806
0.0182076
0.0349228
0.0407118
0.0325094
0.00886406
-0.0297475
-0.0808481
-0.140168
-0.202105
-0.260392
-0.308862
-0.342211
-0.356702
-0.350661
-0.324704
-0.281648
-0.226153
-0.164069
-0.102739
-0.0481381
-0.00477696
0.025153
0.0406847
0.0440506
0.0317795
0.0476394
0.0666997
0.0880877
0.110168
0.130859
0.14733
0.156584
0.156142
0.143968
0.118993
0.0813813
0.032659
-0.0243118
-0.0855493
-0.146324
-0.201646
-0.246816
-0.277968
-0.29255
-0.289652
-0.270132
-0.236511
-0.192672
-0.14335
-0.0943418
-0.0503284
-0.0148457
0.0102832
0.024255
0.028741
0.101102
0.135129
0.168638
0.199225
0.224606
0.242668
0.251167
0.248365
0.234482
0.209266
0.173219
0.127644
0.0746308
0.0169657
-0.0420533
-0.0988683
-0.149947
-0.192109
-0.222834
-0.240535
-0.244726
-0.23608
-0.216348
-0.188158
-0.154695
-0.119603
-0.0861032
-0.0567726
-0.0331946
-0.0162774
-0.00540175
0.126982
0.166294
0.202734
0.233295
0.255662
0.268038
0.26889
0.257541
0.235812
0.204546
0.165069
0.119102
0.0686692
0.0159971
-0.0366
-0.0868432
-0.132588
-0.171954
-0.203438
-0.226015
-0.239199
-0.24308
-0.23829
-0.225947
-0.207523
-0.184268
-0.158046
-0.130694
-0.103767
-0.078568
-0.0558846
0.105911
0.137098
0.164896
0.186714
0.200819
0.206014
0.201471
0.187175
0.165165
0.136486
0.102381
0.0641765
0.0231933
-0.0193033
-0.0621314
-0.104192
-0.144431
-0.18183
-0.215398
-0.244167
-0.267218
-0.283732
-0.293052
-0.29475
-0.288692
-0.273882
-0.251128
-0.221836
-0.187757
-0.150799
-0.113283
0.0508293
0.0649771
0.0770975
0.0858344
0.0904425
0.090445
0.0855257
0.0757878
0.0622172
0.0451729
0.0249714
0.00183374
-0.0241142
-0.0528043
-0.0841547
-0.117974
-0.153856
-0.191098
-0.228662
-0.265144
-0.298828
-0.327799
-0.350107
-0.363948
-0.367882
-0.359152
-0.337882
-0.305332
-0.263604
-0.215269
-0.164037
-0.0156157
-0.0202582
-0.0241288
-0.0269155
-0.0283098
-0.0281376
-0.0265381
-0.0238558
-0.0209864
-0.0189099
-0.0188158
-0.0220152
-0.0298106
-0.0433448
-0.0634406
-0.0904505
-0.12414
-0.163619
-0.20733
-0.253073
-0.298137
-0.339495
-0.374062
-0.398973
-0.411884
-0.408971
-0.39
-0.356265
-0.310252
-0.255069
-0.195444
-0.0703018
-0.0888876
-0.103368
-0.111846
-0.113205
-0.106841
-0.0930582
-0.0730225
-0.0496619
-0.0254975
-0.00333731
0.0139782
0.0238378
0.0241177
0.0134028
-0.00884633
-0.0422138
-0.085313
-0.135856
-0.190769
-0.246411
-0.298856
-0.344225
-0.379004
-0.400389
-0.404223
-0.39015
-0.359524
-0.315095
-0.260225
-0.200132
-0.0993615
-0.123684
-0.141077
-0.148494
-0.144431
-0.128121
-0.10025
-0.0628791
-0.020495
0.0231074
0.063851
0.0977648
0.121348
0.131895
0.127748
0.108444
0.0747389
0.0285566
-0.0271705
-0.0887039
-0.151795
-0.212024
-0.26516
-0.307493
-0.336159
-0.347289
-0.340524
-0.317196
-0.280103
-0.232511
-0.179525
-0.0999009
-0.122265
-0.136366
-0.13878
-0.128028
-0.103469
-0.066054
-0.0184014
0.034419
0.0880836
0.138044
0.179969
0.210142
0.225799
0.225367
0.208575
0.176437
0.131139
0.0758357
0.0143976
-0.0489132
-0.109784
-0.164197
-0.208728
-0.240812
-0.257294
-0.257859
-0.24373
-0.217396
-0.181679
-0.14097
-0.0796918
-0.0957869
-0.104193
-0.101758
-0.087357
-0.0604139
-0.0221696
0.0248519
0.0760816
0.127552
0.175145
0.215001
0.243872
0.259416
0.26038
0.246684
0.219367
0.180471
0.132827
0.0798157
0.0250788
-0.0277755
-0.0754555
-0.115217
-0.145061
-0.162753
-0.168083
-0.16188
-0.146199
-0.123145
-0.0960752
-0.0509701
-0.0599406
-0.0633454
-0.0587497
-0.0454983
-0.0231323
0.00728349
0.0436883
0.0828367
0.121811
0.157607
0.187444
0.209013
0.220686
0.221643
0.21191
0.192315
0.164388
0.130198
0.0921703
0.0528743
0.0148228
-0.0197265
-0.0489235
-0.0714469
-0.0859852
-0.0923303
-0.0909482
-0.0833344
-0.0708582
-0.0556801
0.0442482
0.0526948
0.0576267
0.0574929
0.0526651
0.0435232
0.0318532
0.0199332
0.0104432
0.00512318
0.00503173
0.0102907
0.0200012
0.032294
0.0445562
0.0537832
0.0570129
0.0517679
0.036457
0.0107082
-0.0244683
-0.0666975
-0.112483
-0.157571
-0.197494
-0.226273
-0.240664
-0.238859