# vtk DataFile Version 2.0
Func
ASCII
DATASET RECTILINEAR_GRID
DIMENSIONS 31 31 31
X_COORDINATES 31 double
-9.67742
-9.03226
-8.3871
-7.74194
-7.09677
-6.45161
-5.80645
-5.16129
-4.51613
-3.87097
-3.22581
-2.58065
-1.93548
-1.29032
-0.645161
0
0.645161
1.29032
1.93548
2.58065
3.22581
3.87097
4.51613
5.16129
5.80645
6.45161
7.09677
7.74194
8.3871
9.03226
9.67742
Y_COORDINATES 31 double
-9.67742
-9.03226
-8.3871
-7.74194
-7.09677
-6.45161
-5.80645
-5.16129
-4.51613
-3.87097
-3.22581
-2.58065
-1.93548
-1.29032
-0.645161
0
0.645161
1.29032
1.93548
2.58065
3.22581
3.87097
4.51613
5.16129
5.80645
6.45161
7.09677
7.74194
8.3871
9.03226
9.67742
Z_COORDINATES 31 double
-9.67742
-9.03226
-8.3871
-7.74194
-7.09677
-6.45161
-5.80645
-5.16129
-4.51613
-3.87097
-3.22581
-2.58065
-1.93548
-1.29032
-0.645161
0
0.645161
1.29032
1.93548
2.58065
3.22581
3.87097
4.51613
5.16129
5.80645
6.45161
7.09677
7.74194
8.3871
9.03226
9.67742
POINT_DATA 29791
SCALARS data double 1
LOOKUP_TABLE default
0.0552068
0.0675957
0.0762737
0.0789982
0.0753986
0.0650004
0.0488896
0.0286974
0.00699933
-0.014203
-0.0330547
-0.0481011
-0.0584406
-0.0638235
-0.0646375
-0.061811
-0.0566419
-0.0505943
-0.0450806
-0.0412516
-0.0398348
-0.0410374
-0.0445473
-0.0495951
-0.0551153
-0.0594676
-0.0614758
-0.0602101
-0.0557896
-0.0482023
-0.0387498
0.081584
0.100161
0.113055
0.117442
0.112699
0.0983607
0.076051
0.0480929
0.0183962
-0.0100848
-0.0346605
-0.0532739
-0.064731
-0.0688377
-0.0663692
-0.0589145
-0.0486029
-0.0377839
-0.028685
-0.0230857
-0.0220692
-0.0258758
-0.033909
-0.0448432
-0.0568732
-0.0673074
-0.0742548
-0.0761496
-0.0729376
-0.0646279
-0.0528208
0.0984303
0.120915
0.136569
0.142182
0.137085
0.121004
0.0957728
0.0643604
0.0315582
0.000946003
-0.0242819
-0.0417632
-0.0502498
-0.0497614
-0.0415367
-0.027821
-0.0115061
0.00428825
0.0166574
0.0233308
0.02299
0.015447
0.00163058
-0.0165666
-0.0366158
-0.0549257
-0.0687716
-0.0761473
-0.0766844
-0.0702688
-0.0588027
0.099308
0.121898
0.137562
0.143089
0.137973
0.122052
0.0974478
0.0673468
0.0367579
0.00940399
-0.0114695
-0.0235698
-0.0258483
-0.0186484
-0.00363529
0.0164542
0.0382212
0.0580787
0.0727483
0.0797264
0.0776353
0.0664138
0.047291
0.0226037
-0.0045878
-0.0301217
-0.0507187
-0.0638879
-0.0690942
-0.0660456
-0.0568223
0.0830034
0.101113
0.113145
0.116317
0.110389
0.0954563
0.0736018
0.0478671
0.0228027
0.00179154
-0.0122965
-0.0175472
-0.0132634
-9.01325e-05
0.0200696
0.0443122
0.069141
0.0909366
0.106447
0.113245
0.110069
0.0970021
0.0754378
0.0478857
0.0175766
-0.0112086
-0.0350271
-0.0512789
-0.0593229
-0.0587839
-0.051761
0.0532157
0.0631117
0.0683206
0.0667564
0.0584891
0.0438631
0.0247211
0.00365224
-0.0157674
-0.0308254
-0.0392842
-0.0397418
-0.0318423
-0.0163673
0.00484572
0.0291319
0.0533522
0.0743027
0.0891409
0.0957817
0.0931934
0.0815495
0.0621901
0.0374457
0.0102772
-0.0153982
-0.0364646
-0.0505815
-0.0571998
-0.055995
-0.0490003
0.0151964
0.0147127
0.0110799
0.003173
-0.00867044
-0.0239133
-0.0411362
-0.0584422
-0.0735791
-0.0847119
-0.0903662
-0.0896743
-0.0825183
-0.0695876
-0.0523193
-0.0327327
-0.0131779
0.00396294
0.0165872
0.0231671
0.0229684
0.0161654
0.00380889
-0.0123065
-0.0299211
-0.0459386
-0.0580378
-0.0644977
-0.0650624
-0.0596041
-0.0499231
-0.0242339
-0.0352587
-0.0478567
-0.0620979
-0.077464
-0.093317
-0.108799
-0.122868
-0.134763
-0.14363
-0.148808
-0.149936
-0.147028
-0.140493
-0.131119
-0.119986
-0.108355
-0.0975082
-0.0885831
-0.0824092
-0.0793817
-0.0793917
-0.0818417
-0.0857189
-0.0897609
-0.0920156
-0.0912639
-0.0866417
-0.0783293
-0.0664811
-0.0525973
-0.0599398
-0.0799437
-0.0998304
-0.118594
-0.135617
-0.150246
-0.162275
-0.171634
-0.179111
-0.184913
-0.189249
-0.192298
-0.194195
-0.195031
-0.194864
-0.193737
-0.191701
-0.188813
-0.185134
-0.180704
-0.175518
-0.169511
-0.162555
-0.154467
-0.145057
-0.133643
-0.120179
-0.104713
-0.0879058
-0.0701964
-0.0527718
-0.0887513
-0.11513
-0.139456
-0.159698
-0.175172
-0.18525
-0.190414
-0.191612
-0.19116
-0.190392
-0.190482
-0.192257
-0.196108
-0.201946
-0.209238
-0.21711
-0.224494
-0.230276
-0.233442
-0.233193
-0.22903
-0.220789
-0.208639
-0.193038
-0.174677
-0.154013
-0.131979
-0.109412
-0.0874
-0.0666069
-0.0479872
-0.109803
-0.139819
-0.165583
-0.184143
-0.194725
-0.196713
-0.191229
-0.180192
-0.167346
-0.155183
-0.145928
-0.141223
-0.141945
-0.148106
-0.1589
-0.172845
-0.188029
-0.202372
-0.213895
-0.220958
-0.222439
-0.217836
-0.207282
-0.191478
-0.171581
-0.148793
-0.124641
-0.100482
-0.0777414
-0.057243
-0.0398946
-0.123591
-0.155077
-0.180048
-0.194821
-0.198459
-0.190298
-0.171957
-0.146161
-0.117862
-0.0906268
-0.0677459
-0.0517937
-0.0443616
-0.0458917
-0.055693
-0.0720969
-0.0927431
-0.114907
-0.135848
-0.153139
-0.164928
-0.170102
-0.16835
-0.160117
-0.146482
-0.128802
-0.108732
-0.0878348
-0.0677865
-0.0495665
-0.0343081
-0.130568
-0.162109
-0.185262
-0.195876
-0.192788
-0.175209
-0.145016
-0.105431
-0.0622126
-0.019757
0.0177484
0.0468312
0.0650785
0.0713726
0.0659291
0.0501774
0.026487
-0.00216453
-0.0325689
-0.061657
-0.0868164
-0.106119
-0.118452
-0.123529
-0.121823
-0.114177
-0.101944
-0.0866018
-0.0700416
-0.0534626
-0.0385368
-0.130157
-0.16079
-0.182104
-0.189839
-0.182589
-0.159384
-0.122044
-0.0738456
-0.0207643
0.0324422
0.0810754
0.121024
0.149149
0.163583
0.163832
0.150735
0.126251
0.0931857
0.0548466
0.014685
-0.0240398
-0.0585363
-0.0866896
-0.107161
-0.119424
-0.123206
-0.119243
-0.108708
-0.0937063
-0.0757562
-0.0573446
-0.120754
-0.149429
-0.16926
-0.176287
-0.168933
-0.146028
-0.108995
-0.0606439
-0.00641176
0.0492142
0.10161
0.146496
0.180316
0.20057
0.205986
0.196574
0.17353
0.139067
0.0961642
0.0482826
-0.000948624
-0.048027
-0.0898566
-0.123949
-0.148593
-0.162001
-0.164111
-0.155649
-0.138917
-0.115814
-0.0897977
-0.10083
-0.126036
-0.144438
-0.152792
-0.149486
-0.133184
-0.104594
-0.0655573
-0.0201709
0.0280384
0.0751951
0.117433
0.151226
0.173702
0.182881
0.177832
0.15872
0.126787
0.0842493
0.03413
-0.0199769
-0.0741874
-0.124657
-0.167874
-0.200973
-0.220535
-0.225626
-0.216434
-0.195377
-0.164686
-0.128765
-0.0705375
-0.0903857
-0.106784
-0.117541
-0.121175
-0.116251
-0.102539
-0.0805265
-0.0522969
-0.0198289
0.0143452
0.0473205
0.0760442
0.0975863
0.10941
0.109631
0.097223
0.0721743
0.0355572
-0.010471
-0.0627962
-0.117574
-0.170576
-0.217557
-0.254699
-0.277106
-0.282982
-0.271908
-0.246254
-0.208402
-0.163487
-0.0329344
-0.0457098
-0.0590742
-0.0720672
-0.0834717
-0.0918329
-0.095899
-0.0946332
-0.0877402
-0.075323
-0.0582182
-0.0380193
-0.0169881
0.00214134
0.0164467
0.0231627
0.0200403
0.00567814
-0.020222
-0.0566771
-0.101416
-0.151024
-0.201279
-0.247555
-0.285371
-0.30873
-0.315037
-0.303223
-0.27539
-0.233798
-0.183952
0.0059819
0.00105282
-0.00833848
-0.0224349
-0.0403438
-0.0606513
-0.0811749
-0.0994512
-0.112871
-0.119701
-0.11908
-0.111239
-0.0975502
-0.0804188
-0.0629985
-0.0487842
-0.0411259
-0.0427442
-0.0553081
-0.0790954
-0.112852
-0.153845
-0.198163
-0.241131
-0.277919
-0.301923
-0.309872
-0.300062
-0.274116
-0.233913
-0.184896
0.0386513
0.0408295
0.0356704
0.0219662
0.000318077
-0.0279401
-0.0599531
-0.0921936
-0.120263
-0.141008
-0.15223
-0.15306
-0.144112
-0.127456
-0.106338
-0.0847468
-0.0668375
-0.0563451
-0.0560431
-0.0672874
-0.0897704
-0.121496
-0.159031
-0.197908
-0.233253
-0.258369
-0.269522
-0.26449
-0.244304
-0.210302
-0.167464
0.0582672
0.065259
0.0636266
0.0515988
0.0295892
-0.0011751
-0.0375528
-0.0755203
-0.109779
-0.136463
-0.152675
-0.156935
-0.1494
-0.131872
-0.107546
-0.0805692
-0.0554404
-0.0363887
-0.0267839
-0.0286333
-0.0422828
-0.0663438
-0.097899
-0.132875
-0.166639
-0.192891
-0.20776
-0.208747
-0.196319
-0.17128
-0.137837
0.0610894
0.069619
0.0700291
0.0604619
0.041268
0.0135361
-0.019757
-0.0547569
-0.0863288
-0.110729
-0.125114
-0.127978
-0.119365
-0.100886
-0.0754979
-0.0470879
-0.0199215
0.00193863
0.0151835
0.0177271
0.00899354
-0.0100031
-0.0368286
-0.0679543
-0.0992823
-0.125351
-0.142578
-0.14854
-0.143307
-0.127303
-0.103782
0.0477384
0.0545213
0.0552745
0.0485011
0.0345812
0.0144148
-0.00962202
-0.034478
-0.0561843
-0.0718939
-0.0795043
-0.077995
-0.0675789
-0.0496988
-0.0268333
-0.00215718
0.0209025
0.039126
0.0499293
0.0517232
0.0441231
0.0279981
0.00532573
-0.0210723
-0.047937
-0.0710496
-0.0875845
-0.0955969
-0.095001
-0.0860692
-0.0710231
0.0229808
0.0257045
0.0255441
0.021686
0.0145668
0.00482531
-0.00610005
-0.0164417
-0.0241209
-0.0277343
-0.0263869
-0.0198666
-0.00869433
0.00591851
0.0222243
0.038171
0.0516813
0.0609268
0.0645696
0.0619489
0.0531685
0.0390854
0.0211877
0.00140637
-0.0181365
-0.0348203
-0.0469889
-0.0535265
-0.0544273
-0.0499984
-0.0414307
-0.00593552
-0.00802801
-0.00950191
-0.0103432
-0.0100998
-0.00846619
-0.00512198
0.000182671
0.0073292
0.0160586
0.0258947
0.0361627
0.0460519
0.0547012
0.0613002
0.06519
0.0659443
0.0634234
0.057793
0.0495096
0.0392646
0.0279039
0.0163321
0.00541646
-0.00408666
-0.0114112
-0.0163154
-0.0187307
-0.0188682
-0.017147
-0.0137769
-0.0317458
-0.037874
-0.0402012
-0.0379248
-0.0306595
-0.0184767
-0.0021635
0.0170496
0.0369804
0.0558254
0.0718713
0.0836964
0.0903351
0.0913945
0.0870927
0.078222
0.0660289
0.0520472
0.0378979
0.0250787
0.0147727
0.00770916
0.00410273
0.0036594
0.00568331
0.00900621
0.0124378
0.0149843
0.0162055
0.0156166
0.0139163
-0.0488022
-0.0571445
-0.0593982
-0.0541788
-0.0412433
-0.0210198
0.00480935
0.0338495
0.0623895
0.0874984
0.106604
0.117835
0.120247
0.113958
0.100121
0.0807636
0.0585044
0.036203
0.0165862
0.00188314
-0.00646334
-0.00797203
-0.00314089
0.00665274
0.0194155
0.0322671
0.0428435
0.0492967
0.0510502
0.0476806
0.0405818
-0.055099
-0.0636517
-0.0650464
-0.0575819
-0.0411912
-0.0165578
0.0140975
0.04772
0.0798312
0.106955
0.126155
0.135445
0.134049
0.122521
0.102666
0.0773057
0.0498789
0.0239892
0.00292837
-0.0107726
-0.0156778
-0.0116279
0.000281887
0.0178762
0.0382663
0.0573921
0.0721939
0.0803308
0.081243
0.0746776
0.06257
-0.0510633
-0.0582482
-0.0585006
-0.0501487
-0.0332606
-0.00865402
0.0214253
0.0538707
0.0842879
0.109303
0.126135
0.133001
0.129358
0.115998
0.094947
0.0691976
0.0422952
0.0178666
-0.000862443
-0.0115156
-0.0128858
-0.00509565
0.0104523
0.0312833
0.0542428
0.0749164
0.090155
0.0976891
0.0970203
0.0881288
0.073185
-0.0399015
-0.0450469
-0.044585
-0.0370831
-0.0226916
-0.00206605
0.0227786
0.0492686
0.0738113
0.0936592
0.106586
0.111221
0.107238
0.0954261
0.0775869
0.0562978
0.0345561
0.0153792
0.00140006
-0.00550498
-0.00447257
0.00422225
0.0192287
0.038307
0.0586802
0.0764696
0.0890943
0.0944653
0.0924084
0.0830299
0.0684124
-0.0258811
-0.0289313
-0.0283372
-0.0230179
-0.0131367
0.000922811
0.0177476
0.0355407
0.0519326
0.0650955
0.0735631
0.0764579
0.0736127
0.0656129
0.0537206
0.0397062
0.0256041
0.0134392
0.00495344
0.00135683
0.00315671
0.0100799
0.0211258
0.0346969
0.0488537
0.0609324
0.0690901
0.071919
0.0694635
0.0617588
0.0506368
0.0800082
0.097719
0.10948
0.112418
0.105883
0.0893757
0.0645454
0.0337564
0.000962163
-0.0308034
-0.0587505
-0.0807059
-0.0953495
-0.102359
-0.102388
-0.0969148
-0.0879801
-0.0778708
-0.0687833
-0.0624971
-0.0601275
-0.061977
-0.0675358
-0.075582
-0.0844238
-0.0914143
-0.0948055
-0.0931827
-0.0865679
-0.0750386
-0.0602519
0.116631
0.142823
0.160218
0.165095
0.156512
0.134158
0.100423
0.0585448
0.0144582
-0.0274347
-0.0631531
-0.0896755
-0.105286
-0.109772
-0.104377
-0.0915678
-0.0746212
-0.0571343
-0.0425078
-0.0334463
-0.0315857
-0.0372739
-0.0495758
-0.0664399
-0.0850715
-0.101207
-0.112127
-0.115512
-0.110995
-0.0986431
-0.0805604
0.139781
0.171265
0.192368
0.198831
0.189668
0.164944
0.127305
0.0808778
0.0328671
-0.0114434
-0.0473702
-0.0714799
-0.0820102
-0.0790873
-0.0646536
-0.0421546
-0.015995
0.00909138
0.0287071
0.0394272
0.0392732
0.0279784
0.00697335
-0.0208476
-0.051614
-0.079714
-0.101205
-0.113135
-0.114608
-0.105521
-0.0883651
0.140959
0.172598
0.193849
0.200434
0.191596
0.167545
0.131353
0.0874503
0.0433293
0.00445786
-0.024429
-0.0400211
-0.0408673
-0.0275842
-0.00275201
0.0294529
0.0638739
0.0950846
0.118134
0.129253
0.126373
0.109418
0.0802638
0.0424671
0.000691795
-0.0386091
-0.0706583
-0.0917304
-0.100696
-0.0972093
-0.0839713
0.118573
0.14425
0.160882
0.164758
0.155511
0.133641
0.102164
0.0653248
0.0299147
0.000890799
-0.0175699
-0.0227156
-0.013611
0.00868614
0.0412477
0.0796537
0.118604
0.152622
0.176792
0.187451
0.182697
0.162664
0.129467
0.0869191
0.0399437
-0.00484632
-0.0424006
-0.0687881
-0.0827238
-0.0837317
-0.0744591
0.0784573
0.0933349
0.101247
0.0993882
0.0878221
0.0672619
0.0403769
0.0108289
-0.0160251
-0.0361929
-0.0463968
-0.0446057
-0.0303535
-0.00487221
0.0290251
0.0672808
0.105123
0.137681
0.160631
0.170795
0.166595
0.148279
0.117878
0.0789342
0.0359766
-0.00494085
-0.0392144
-0.063253
-0.0759039
-0.076739
-0.0682405
0.0279006
0.0292142
0.025855
0.016198
0.000666282
-0.0199408
-0.043567
-0.0674555
-0.0881658
-0.102945
-0.109576
-0.106745
-0.0942742
-0.0732054
-0.045724
-0.014913
0.0156262
0.0422279
0.0616397
0.0714802
0.0705777
0.0591525
0.0387822
0.0122018
-0.0171059
-0.0443296
-0.0660149
-0.0794555
-0.0839181
-0.0792184
-0.0674988
-0.0238308
-0.0361475
-0.0508414
-0.0682885
-0.0878397
-0.108751
-0.129781
-0.149296
-0.165975
-0.178427
-0.18553
-0.18662
-0.181613
-0.171067
-0.15615
-0.138534
-0.120202
-0.10321
-0.0894166
-0.0802147
-0.0763234
-0.0776659
-0.0833772
-0.0919102
-0.101279
-0.108404
-0.111441
-0.108931
-0.100773
-0.0871495
-0.0697821
-0.0702133
-0.0940329
-0.117827
-0.140732
-0.161985
-0.181
-0.19748
-0.211068
-0.222617
-0.232185
-0.239802
-0.245467
-0.249163
-0.250879
-0.25065
-0.248578
-0.244857
-0.23976
-0.233596
-0.22665
-0.219119
-0.211055
-0.202347
-0.192727
-0.18183
-0.168509
-0.152639
-0.134091
-0.113483
-0.0913778
-0.069046
-0.107695
-0.139681
-0.168939
-0.193423
-0.212292
-0.225132
-0.232634
-0.235779
-0.23755
-0.239531
-0.243024
-0.248848
-0.257235
-0.26781
-0.279671
-0.291534
-0.301945
-0.309476
-0.312904
-0.31135
-0.30436
-0.291922
-0.274443
-0.252669
-0.227594
-0.199824
-0.17067
-0.141143
-0.112536
-0.0857229
-0.0615949
-0.135821
-0.172645
-0.203687
-0.225813
-0.238042
-0.24007
-0.233481
-0.22054
-0.206214
-0.193656
-0.18558
-0.183869
-0.189352
-0.201717
-0.219594
-0.24078
-0.262584
-0.282187
-0.297005
-0.304993
-0.30487
-0.296218
-0.27948
-0.255848
-0.227069
-0.194938
-0.161642
-0.128937
-0.0986647
-0.071944
-0.049494
-0.155642
-0.194832
-0.225112
-0.242412
-0.245493
-0.234025
-0.210263
-0.177528
-0.142475
-0.109734
-0.083469
-0.0668275
-0.0615989
-0.0680314
-0.0848849
-0.109662
-0.13902
-0.169227
-0.196634
-0.218113
-0.231392
-0.23525
-0.229573
-0.215262
-0.194035
-0.168004
-0.139572
-0.11078
-0.0838788
-0.0602291
-0.0407286
-0.167599
-0.207655
-0.236215
-0.248531
-0.243007
-0.21913
-0.17947
-0.127986
-0.0724828
-0.0187334
0.0278477
0.0628574
0.0833525
0.0881318
0.0777608
0.0543926
0.0213737
-0.0172194
-0.0570941
-0.0942395
-0.125341
-0.148063
-0.161202
-0.164677
-0.159394
-0.146794
-0.128902
-0.107639
-0.0855526
-0.0643337
-0.045496
-0.170225
-0.210067
-0.237149
-0.246447
-0.235985
-0.20495
-0.155773
-0.0924562
-0.023132
0.0459142
0.108534
0.159397
0.194507
0.211566
0.210106
0.191411
0.15822
0.114346
0.0642016
0.0123233
-0.0370763
-0.0804602
-0.115229
-0.139839
-0.153807
-0.157001
-0.15065
-0.13627
-0.116619
-0.0938475
-0.0704979
-0.160402
-0.198569
-0.224691
-0.233985
-0.2242
-0.194159
-0.145681
-0.0821178
-0.0108631
0.0621617
0.130878
0.189671
0.233899
0.260318
0.267304
0.254928
0.224815
0.179914
0.124164
0.062107
-0.00152288
-0.0621868
-0.115902
-0.159506
-0.190846
-0.207617
-0.210026
-0.199004
-0.177427
-0.147978
-0.114481
-0.135223
-0.1694
-0.194451
-0.206403
-0.202938
-0.182528
-0.145954
-0.0952524
-0.0359318
0.0274157
0.0897214
0.145899
0.191284
0.222045
0.235503
0.230353
0.206731
0.166196
0.111599
0.0468711
-0.0232947
-0.0938126
-0.159634
-0.216145
-0.259565
-0.285223
-0.292223
-0.280793
-0.253781
-0.214327
-0.167529
-0.0944974
-0.121727
-0.144603
-0.160457
-0.167151
-0.162866
-0.147063
-0.119966
-0.0842198
-0.0422623
0.00268664
0.0468421
0.0861474
0.116632
0.134781
0.137907
0.124439
0.0941548
0.0482929
-0.0104253
-0.0779669
-0.149286
-0.218779
-0.280788
-0.330178
-0.360149
-0.368697
-0.355247
-0.322411
-0.27353
-0.214689
-0.042531
-0.0601091
-0.0790622
-0.0983204
-0.116129
-0.130464
-0.139382
-0.141089
-0.134827
-0.120419
-0.0987367
-0.0717643
-0.0424943
-0.0146671
0.00762371
0.0204206
0.0204151
0.0054255
-0.0252307
-0.0704677
-0.127418
-0.19162
-0.257461
-0.318733
-0.369363
-0.400976
-0.410506
-0.396497
-0.361086
-0.307447
-0.242138
0.0119396
0.00531441
-0.00816081
-0.0290208
-0.0559788
-0.0869005
-0.118588
-0.147373
-0.169191
-0.181307
-0.182241
-0.172098
-0.152662
-0.127242
-0.10028
-0.0767744
-0.0615838
-0.0587346
-0.0708168
-0.0984904
-0.140288
-0.192683
-0.250475
-0.307375
-0.356815
-0.389567
-0.40163
-0.390665
-0.358135
-0.306691
-0.242767
0.0579089
0.0613227
0.0538486
0.0336541
0.00160322
-0.0401533
-0.0875306
-0.13549
-0.177418
-0.208622
-0.225778
-0.227483
-0.214492
-0.189661
-0.157578
-0.123928
-0.0946853
-0.0752738
-0.0697977
-0.080391
-0.106876
-0.146722
-0.195376
-0.246824
-0.29443
-0.328869
-0.345462
-0.341132
-0.316595
-0.27377
-0.218435
0.0855722
0.0958794
0.0935358
0.0759631
0.0437466
-0.00105274
-0.0540005
-0.109457
-0.159559
-0.198659
-0.222501
-0.228868
-0.217898
-0.192088
-0.155946
-0.115359
-0.076746
-0.046173
-0.0285231
-0.0267852
-0.0416432
-0.0713725
-0.112111
-0.158382
-0.203888
-0.239908
-0.261519
-0.265251
-0.251172
-0.220481
-0.177925
0.0896735
0.102359
0.103191
0.0895096
0.0617909
0.0218755
-0.0260732
-0.0767121
-0.122475
-0.157951
-0.179017
-0.183461
-0.171287
-0.144728
-0.107931
-0.0663765
-0.0260898
0.00717188
0.0286917
0.0354479
0.0265023
0.00310903
-0.0315141
-0.0726406
-0.114731
-0.150301
-0.174782
-0.18483
-0.180118
-0.161334
-0.132023
0.0712741
0.0818551
0.0836405
0.0745018
0.05493
0.0263903
-0.00782645
-0.0435274
-0.0748967
-0.0978548
-0.109379
-0.107977
-0.0939028
-0.0691349
-0.0371057
-0.00222461
0.0307473
0.0573345
0.073937
0.0783195
0.0698867
0.0497419
0.0204894
-0.0141335
-0.0497886
-0.0808039
-0.103642
-0.115678
-0.116529
-0.10667
-0.0884059
0.0372887
0.0426777
0.0438255
0.0395623
0.0304216
0.0173311
0.00224108
-0.0124532
-0.0237245
-0.0295907
-0.0287757
-0.0209473
-0.00678198
0.0121039
0.0333717
0.0542811
0.0720728
0.0843371
0.0893288
0.0862059
0.0751256
0.0572146
0.0344005
0.00915425
-0.0158242
-0.0371922
-0.0530409
-0.0619789
-0.0638817
-0.0592613
-0.0492208
-0.00204143
-0.00277717
-0.00270335
-0.00186837
0.000240618
0.00389059
0.00943486
0.0171567
0.02687
0.0381653
0.0503609
0.0625404
0.0736521
0.0826318
0.0885434
0.0907091
0.0888032
0.0828994
0.0734634
0.0612983
0.047435
0.033003
0.019098
0.00665949
-0.00359191
-0.0110242
-0.015709
-0.017797
-0.017606
-0.0157839
-0.0122835
-0.0366614
-0.0423871
-0.0427256
-0.0367008
-0.0239343
-0.004863
0.0192787
0.0467164
0.07427
0.0993258
0.119456
0.132716
0.137886
0.134636
0.123567
0.106145
0.0845017
0.0611571
0.0387
0.0194469
0.00514227
-0.00325429
-0.00565021
-0.00279139
0.003931
0.0123103
0.0202759
0.026137
0.0291154
0.0284943
0.0254271
-0.0591343
-0.0674214
-0.0670446
-0.0563062
-0.0350569
-0.00435464
0.0332763
0.0744447
0.113771
0.147048
0.170655
0.182045
0.180091
0.165246
0.139504
0.106152
0.069321
0.0334597
0.00275297
-0.0194347
-0.0309967
-0.0313447
-0.0214283
-0.0035685
0.01896
0.0414331
0.0601681
0.0722639
0.0766206
0.0726226
0.0623352
-0.0672062
-0.0755488
-0.0736572
-0.0594956
-0.0331709
0.00384999
0.0482533
0.09572
0.139773
0.175439
0.1986
0.206581
0.198531
0.175567
0.140658
0.098253
0.0536823
0.0124687
-0.0203934
-0.0411188
-0.0476282
-0.0398136
-0.019502
0.00982218
0.0435839
0.0753179
0.100412
0.115289
0.118772
0.110498
0.0932641
-0.0618734
-0.0684757
-0.0651179
-0.0498504
-0.02297
0.013885
0.0573537
0.103036
0.14458
0.177162
0.196893
0.2014
0.190169
0.164666
0.128172
0.0853791
0.0417582
0.00284917
-0.0264673
-0.0426464
-0.0439532
-0.0306927
-0.00513446
0.0288138
0.0662066
0.100069
0.125719
0.139752
0.141005
0.12943
0.108116
-0.0479909
-0.0523336
-0.0485363
-0.0349815
-0.012036
0.0189749
0.0550153
0.09241
0.125942
0.151666
0.166462
0.168518
0.157599
0.13513
0.104036
0.0683749
0.0327986
0.00194144
-0.0201913
-0.030788
-0.0286108
-0.0141763
0.0103406
0.0414007
0.0746385
0.103902
0.125371
0.135889
0.134819
0.122305
0.101273
-0.0310167
-0.0332989
-0.0301688
-0.0204707
-0.00450011
0.016939
0.0416726
0.0670685
0.0896537
0.106768
0.116338
0.1172
0.10928
0.0936474
0.0723834
0.0483241
0.0246799
0.00461335
-0.00918176
-0.0148635
-0.0116985
-0.000176795
0.018072
0.0404897
0.0639814
0.0842816
0.0985759
0.104685
0.102447
0.0919818
0.0757642
0.0956003
0.116184
0.129176
0.131186
0.121449
0.0995798
0.0674633
0.0281958
-0.0132848
-0.0531568
-0.0879215
-0.114864
-0.132358
-0.140038
-0.138782
-0.130513
-0.117872
-0.103809
-0.0911549
-0.082205
-0.0783994
-0.0801363
-0.086767
-0.0967263
-0.107833
-0.116655
-0.120921
-0.118963
-0.110627
-0.0960305
-0.0770841
0.138484
0.168771
0.188038
0.191899
0.179261
0.150068
0.107014
0.0543355
-0.000630946
-0.0523949
-0.0960129
-0.127751
-0.145524
-0.149136
-0.140224
-0.121971
-0.0985783
-0.0746487
-0.0545337
-0.0416961
-0.0382364
-0.0446169
-0.0596589
-0.0807568
-0.104339
-0.124932
-0.139024
-0.143889
-0.138756
-0.123692
-0.101147
0.165396
0.20172
0.22521
0.230906
0.21765
0.185885
0.138572
0.0810706
0.0222239
-0.0314269
-0.0741135
-0.101636
-0.111896
-0.105156
-0.083959
-0.0527326
-0.017106
0.0168813
0.0436214
0.0587429
0.0597137
0.0461724
0.0199232
-0.0153626
-0.0547508
-0.0910705
-0.119234
-0.135737
-0.139067
-0.129073
-0.108617
0.166608
0.203232
0.227203
0.233533
0.221372
0.191331
0.146883
0.0937395
0.0410467
-0.0044742
-0.0370389
-0.0526469
-0.0496273
-0.0288891
0.00620055
0.0502807
0.0967657
0.138739
0.169892
0.185417
0.182672
0.161538
0.12439
0.0757445
0.0215541
-0.0299575
-0.0726066
-0.101874
-0.115914
-0.11422
-0.0998928
0.141262
0.171487
0.190849
0.195018
0.183609
0.157509
0.120159
0.0769899
0.0362687
0.00406106
-0.0145591
-0.0162995
-0.000141655
0.0324454
0.0776515
0.129801
0.182116
0.227607
0.259995
0.274596
0.268969
0.243257
0.200143
0.144483
0.0825772
0.0228445
-0.0281333
-0.0655187
-0.0872376
-0.0925703
-0.0844905
0.0970858
0.11587
0.126347
0.125198
0.112512
0.0892903
0.0586314
0.0251789
-0.00450313
-0.0255125
-0.0338484
-0.0270673
-0.00468962
0.0316331
0.0782564
0.129964
0.180633
0.224009
0.254529
0.268087
0.262618
0.238392
0.197975
0.145887
0.0879532
0.0318796
-0.0162568
-0.0519787
-0.0733582
-0.0796892
-0.0736778
0.042815
0.0474654
0.0464948
0.0378251
0.0218858
-0.000405638
-0.0265949
-0.0532213
-0.0759255
-0.0912451
-0.0963766
-0.0896525
-0.0708365
-0.0412555
-0.00370762
0.0378386
0.0787236
0.114176
0.139928
0.152817
0.15123
0.135349
0.107135
0.0700725
0.0286663
-0.0109587
-0.0441281
-0.0674178
-0.0794156
-0.0796785
-0.0704726
-0.0110811
-0.0202832
-0.0325854
-0.0488173
-0.0684067
-0.0907118
-0.114149
-0.136682
-0.156316
-0.171105
-0.179414
-0.180185
-0.173126
-0.158815
-0.138687
-0.1149
-0.0900898
-0.0670552
-0.0483888
-0.0361063
-0.0313499
-0.0342058
-0.0436843
-0.0578462
-0.0740983
-0.0885247
-0.0984533
-0.101977
-0.0984765
-0.0879271
-0.0720665
-0.0582197
-0.0788135
-0.0999917
-0.121381
-0.142415
-0.162839
-0.182081
-0.199681
-0.216013
-0.230697
-0.243275
-0.25327
-0.260246
-0.263905
-0.264147
-0.261119
-0.255229
-0.247104
-0.237497
-0.22716
-0.216715
-0.206537
-0.196696
-0.186943
-0.176784
-0.164779
-0.150417
-0.133417
-0.114069
-0.0927806
-0.0707179
-0.0961385
-0.124715
-0.151061
-0.173646
-0.19193
-0.206024
-0.216408
-0.224234
-0.232169
-0.241477
-0.253005
-0.267026
-0.283187
-0.300555
-0.317749
-0.333141
-0.345099
-0.352202
-0.353405
-0.348154
-0.336414
-0.318641
-0.295693
-0.268713
-0.238995
-0.20737
-0.17516
-0.143471
-0.113443
-0.0858304
-0.0612841
-0.125852
-0.159401
-0.187456
-0.207363
-0.21849
-0.22117
-0.216821
-0.208098
-0.199837
-0.195007
-0.195953
-0.204035
-0.219435
-0.241146
-0.26711
-0.294525
-0.320245
-0.341197
-0.354763
-0.359087
-0.353272
-0.337433
-0.312635
-0.280713
-0.244014
-0.204954
-0.166
-0.129158
-0.0962581
-0.0682939
-0.0456266
-0.149406
-0.186092
-0.213828
-0.228909
-0.2304
-0.218632
-0.195694
-0.165452
-0.134634
-0.107855
-0.0890696
-0.0810327
-0.0849746
-0.100477
-0.125585
-0.157114
-0.191147
-0.223546
-0.25048
-0.268881
-0.276774
-0.273432
-0.259382
-0.236246
-0.206449
-0.172931
-0.13848
-0.105461
-0.0761825
-0.0518719
-0.0329909
-0.167074
-0.206078
-0.23318
-0.243822
-0.236582
-0.211544
-0.171061
-0.119699
-0.0655401
-0.0145095
0.0279854
0.05772
0.072103
0.0704191
0.053813
0.0250389
-0.0120052
-0.0528091
-0.0928173
-0.127966
-0.155102
-0.17225
-0.178724
-0.175059
-0.162798
-0.144195
-0.12161
-0.0973174
-0.0739215
-0.0529893
-0.0355932
-0.175934
-0.216553
-0.243761
-0.252532
-0.240893
-0.208489
-0.157446
-0.0923222
-0.0216561
0.0479989
0.110326
0.159949
0.192968
0.207306
0.202825
0.181203
0.145582
0.100128
0.0495202
-0.00157524
-0.0489635
-0.0892753
-0.120207
-0.140603
-0.150407
-0.150092
-0.141067
-0.125223
-0.10531
-0.0834009
-0.0616731
-0.170643
-0.211243
-0.239175
-0.249517
-0.239863
-0.209318
-0.159275
-0.0934684
-0.0196803
0.0559038
0.126965
0.187693
0.233327
0.26058
0.267874
0.255396
0.22494
0.17964
0.123613
0.0615446
-0.00174355
-0.0616959
-0.114381
-0.156749
-0.186801
-0.202505
-0.204032
-0.192735
-0.171363
-0.142599
-0.110039
-0.146262
-0.183778
-0.211935
-0.226594
-0.225183
-0.20626
-0.170061
-0.118717
-0.0579029
0.00768505
0.0728212
0.132215
0.180974
0.215032
0.231497
0.228894
0.207238
0.168035
0.11414
0.0495473
-0.0209399
-0.0921036
-0.158751
-0.216136
-0.260359
-0.286666
-0.293896
-0.282751
-0.255805
-0.216272
-0.169177
-0.101719
-0.132108
-0.158625
-0.178542
-0.189446
-0.189418
-0.177274
-0.152952
-0.118854
-0.0772098
-0.0311561
0.0154603
0.0583802
0.0933055
0.116316
0.124285
0.115224
0.0885623
0.0452955
-0.0119663
-0.0791606
-0.151096
-0.221921
-0.285677
-0.336902
-0.368403
-0.377696
-0.364711
-0.331625
-0.281893
-0.221635
-0.0420895
-0.0616114
-0.0838784
-0.107969
-0.131907
-0.1534
-0.169796
-0.178604
-0.178291
-0.168077
-0.148402
-0.121067
-0.0891376
-0.056685
-0.0283343
-0.00870474
-0.00180712
-0.0104794
-0.0359372
-0.0774451
-0.13227
-0.195885
-0.262423
-0.325295
-0.377972
-0.411476
-0.422081
-0.408805
-0.373204
-0.31854
-0.251441
0.0216913
0.0149547
-0.000840401
-0.0266201
-0.0609663
-0.101342
-0.143819
-0.183667
-0.215518
-0.235647
-0.241794
-0.233611
-0.212793
-0.182932
-0.149072
-0.117044
-0.0926423
-0.0808229
-0.0849817
-0.106375
-0.143862
-0.193976
-0.251322
-0.309221
-0.360586
-0.395499
-0.409163
-0.399611
-0.367621
-0.315848
-0.250747
0.0758268
0.0809762
0.072469
0.0478815
0.00812151
-0.0441718
-0.104207
-0.165636
-0.220164
-0.261835
-0.286304
-0.291514
-0.278007
-0.248872
-0.209326
-0.165987
-0.125912
-0.0956293
-0.0802347
-0.0826317
-0.103118
-0.139338
-0.186611
-0.238568
-0.288046
-0.325043
-0.344018
-0.342129
-0.319361
-0.277534
-0.222345
0.108208
0.121588
0.119423
0.0984493
0.059239
0.00436167
-0.0611122
-0.130168
-0.193139
-0.243049
-0.274554
-0.284727
-0.27345
-0.243426
-0.199784
-0.14934
-0.0996136
-0.0577969
-0.0297927
-0.0193958
-0.0278082
-0.0535235
-0.0926041
-0.139262
-0.186719
-0.225674
-0.250376
-0.257473
-0.24633
-0.21798
-0.176979
0.112598
0.128944
0.130893
0.115133
0.0821054
0.0340999
-0.0242025
-0.0862316
-0.142801
-0.187335
-0.214765
-0.22227
-0.209647
-0.179323
-0.135995
-0.0859529
-0.0361673
0.00664948
0.036925
0.050969
0.0474176
0.0273462
-0.00596854
-0.0475578
-0.0915033
-0.129917
-0.157567
-0.17119
-0.169875
-0.154139
-0.127257
0.090658
0.104844
0.108435
0.0987947
0.0763764
0.0429453
0.00214308
-0.0409604
-0.0793829
-0.108246
-0.123897
-0.124459
-0.110081
-0.0829081
-0.046768
-0.00661676
0.0321749
0.0645414
0.0863797
0.0950829
0.0898381
0.0716711
0.0432334
0.00839277
-0.0283226
-0.0611093
-0.086071
-0.100745
-0.104358
-0.0972872
-0.0815249
0.0510772
0.0597219
0.0632986
0.0603227
0.0512777
0.0371668
0.0200798
0.00279059
-0.0111302
-0.0193905
-0.0204919
-0.0139898
-0.000557585
0.0181044
0.0395202
0.0608007
0.0790652
0.0918317
0.0973379
0.0947678
0.0843251
0.0671685
0.0452225
0.0208992
-0.00320582
-0.0240018
-0.0396568
-0.0491249
-0.0521416
-0.0492385
-0.0411766
0.00622619
0.00849946
0.0117484
0.0157938
0.0210508
0.0275925
0.0356706
0.0453869
0.056441
0.0682271
0.0798836
0.0903655
0.0985798
0.103538
0.104513
0.101173
0.0936456
0.0825188
0.0687724
0.0536459
0.0384613
0.0244379
0.0125425
0.0033737
-0.00284647
-0.00623226
-0.00744329
-0.00721532
-0.00599235
-0.00455448
-0.00246114
-0.0321998
-0.0348106
-0.0310347
-0.0199044
-0.00122511
0.0241013
0.054494
0.0874729
0.11918
0.146378
0.166149
0.176268
0.175513
0.163857
0.142507
0.113789
0.0808545
0.0472968
0.0166928
-0.00786707
-0.0241878
-0.0312499
-0.0292999
-0.0197802
-0.00503129
0.011431
0.0264383
0.0374916
0.043445
0.0433904
0.0389751
-0.056173
-0.0609253
-0.0554778
-0.0380963
-0.00892
0.0303106
0.0765217
0.125227
0.17
0.20574
0.228164
0.234411
0.223453
0.196295
0.155894
0.106822
0.0546811
0.00540013
-0.0355233
-0.0637553
-0.0766949
-0.0738031
-0.0566163
-0.0285039
0.00589969
0.0400452
0.0687522
0.088176
0.0966734
0.0934516
0.0812109
-0.0639399
-0.0682581
-0.0605772
-0.0388519
-0.00357008
0.0429916
0.0968381
0.152351
0.201854
0.239382
0.260126
0.261144
0.241819
0.204017
0.151917
0.09152
0.0298764
-0.0258064
-0.0690905
-0.0951808
-0.101562
-0.0883209
-0.0580932
-0.0156786
0.0327054
0.0784119
0.115111
0.138256
0.146049
0.138018
0.117733
-0.0577087
-0.0601093
-0.0508734
-0.0280965
0.00751164
0.053507
0.105821
0.158769
0.204864
0.23836
0.254763
0.251524
0.228458
0.187857
0.13427
0.0739609
0.0141058
-0.0381229
-0.076484
-0.0965306
-0.0962085
-0.0761326
-0.0394801
0.00845158
0.061029
0.109036
0.146096
0.167982
0.172889
0.160779
0.1355
-0.0434332
-0.0439851
-0.0350397
-0.0150312
0.0152735
0.0538517
0.0970516
0.140121
0.176928
0.20279
0.21413
0.209053
0.187664
0.152148
0.106544
0.056266
0.00740902
-0.0340345
-0.0629542
-0.0758392
-0.0712574
-0.0500673
-0.0152869
0.0283044
0.0748652
0.116289
0.147363
0.164206
0.165701
0.152021
0.126828
-0.0271209
-0.0265421
-0.0196135
-0.00523213
0.0159985
0.0427761
0.0724669
0.101688
0.12634
0.143261