# vtk DataFile Version 2.0
Func
ASCII
DATASET RECTILINEAR_GRID
DIMENSIONS 31 31 31
X_COORDINATES 31 double
-9.67742
-9.03226
-8.3871
-7.74194
-7.09677
-6.45161
-5.80645
-5.16129
-4.51613
-3.87097
-3.22581
-2.58065
-1.93548
-1.29032
-0.645161
0
0.645161
1.29032
1.93548
2.58065
3.22581
3.87097
4.51613
5.16129
5.80645
6.45161
7.09677
7.74194
8.3871
9.03226
9.67742
Y_COORDINATES 31 double
-9.67742
-9.03226
-8.3871
-7.74194
-7.09677
-6.45161
-5.80645
-5.16129
-4.51613
-3.87097
-3.22581
-2.58065
-1.93548
-1.29032
-0.645161
0
0.645161
1.29032
1.93548
2.58065
3.22581
3.87097
4.51613
5.16129
5.80645
6.45161
7.09677
7.74194
8.3871
9.03226
9.67742
Z_COORDINATES 31 double
-9.67742
-9.03226
-8.3871
-7.74194
-7.09677
-6.45161
-5.80645
-5.16129
-4.51613
-3.87097
-3.22581
-2.58065
-1.93548
-1.29032
-0.645161
0
0.645161
1.29032
1.93548
2.58065
3.22581
3.87097
4.51613
5.16129
5.80645
6.45161
7.09677
7.74194
8.3871
9.03226
9.67742
POINT_DATA 29791
SCALARS data double 1
LOOKUP_TABLE default
0.00350962
-0.00104229
-0.00900823
-0.0214126
-0.0379204
-0.058126
-0.0806395
-0.103668
-0.125244
-0.143609
-0.157262
-0.165165
-0.166859
-0.162522
-0.15293
-0.139343
-0.123337
-0.106601
-0.0907317
-0.0770335
-0.0663738
-0.0590964
-0.0550245
-0.0535208
-0.0536399
-0.0539223
-0.0532276
-0.0506396
-0.0460758
-0.0393345
-0.0315504
0.0224681
0.0212704
0.0146704
0.00085114
-0.0199179
-0.0472342
-0.0791276
-0.112928
-0.145424
-0.173863
-0.195863
-0.209731
-0.21465
-0.210782
-0.199206
-0.181756
-0.160755
-0.138709
-0.117985
-0.100509
-0.0875404
-0.0795398
-0.0761757
-0.0764199
-0.0787758
-0.0809157
-0.0811589
-0.0781444
-0.0716914
-0.0616311
-0.049421
0.0561193
0.0637282
0.0642139
0.0547971
0.0354031
0.00614207
-0.0306924
-0.0718237
-0.112836
-0.150119
-0.180474
-0.201546
-0.212076
-0.212044
-0.202615
-0.185932
-0.164785
-0.142219
-0.121128
-0.103866
-0.0919593
-0.0859389
-0.0853423
-0.0888382
-0.0945067
-0.0993665
-0.101277
-0.0986567
-0.0912388
-0.0789177
-0.063394
0.100416
0.121506
0.13444
0.135414
0.123771
0.0990603
0.0635295
0.0206369
-0.0242833
-0.0670786
-0.10397
-0.132053
-0.149608
-0.156283
-0.153054
-0.142011
-0.125995
-0.108176
-0.0915999
-0.0787624
-0.0712822
-0.0697139
-0.0735415
-0.0813103
-0.0909258
-0.0991491
-0.103685
-0.102785
-0.0962226
-0.0839471
-0.0677065
0.14458
0.180551
0.208248
0.223028
0.223571
0.208719
0.180335
0.141614
0.0983181
0.0547099
0.0147928
-0.018215
-0.0422178
-0.056455
-0.061488
-0.0590143
-0.0515213
-0.0418808
-0.0329124
-0.0269643
-0.0255888
-0.0293483
-0.0377978
-0.0495994
-0.062796
-0.0743748
-0.0821724
-0.0845218
-0.0811798
-0.0721178
-0.0588339
0.17585
0.223632
0.263966
0.291722
0.305044
0.302135
0.284271
0.254064
0.217127
0.177411
0.138759
0.104407
0.0766512
0.056623
0.0442676
0.0384799
0.0373943
0.0387247
0.0401407
0.0396332
0.0358066
0.0280625
0.0166372
0.00252169
-0.0127474
-0.0268304
-0.037933
-0.0446198
-0.0465706
-0.0436747
-0.0369335
0.184651
0.237665
0.28489
0.321169
0.344395
0.35237
0.345721
0.326291
0.29896
0.266997
0.233726
0.202087
0.174352
0.151899
0.135162
0.123703
0.116411
0.111745
0.108014
0.103653
0.0974554
0.0887403
0.0774065
0.0639077
0.0491329
0.0344042
0.0209674
0.00991163
0.00170548
-0.00335754
-0.00555753
0.16799
0.218148
0.264633
0.302736
0.330439
0.345462
0.347861
0.338679
0.321625
0.299063
0.273552
0.247507
0.222976
0.201439
0.183734
0.170055
0.160051
0.152953
0.147736
0.143292
0.138588
0.132803
0.125407
0.116193
0.105268
0.0927642
0.0792687
0.0654466
0.0519443
0.0392889
0.0280039
0.130606
0.170894
0.209643
0.24295
0.269162
0.286207
0.293713
0.29202
0.283437
0.269376
0.251545
0.231735
0.21166
0.192804
0.176314
0.162939
0.153025
0.146521
0.143021
0.141834
0.142064
0.14271
0.142775
0.141353
0.137722
0.130838
0.120568
0.107098
0.0912078
0.0736195
0.0556079
0.0829789
0.109427
0.136027
0.159858
0.179758
0.194036
0.202069
0.203665
0.199799
0.191054
0.178387
0.163017
0.146343
0.129818
0.114834
0.1026
0.0940445
0.0897184
0.0897365
0.0937442
0.100938
0.110133
0.119886
0.128641
0.134906
0.13665
0.133023
0.123709
0.109512
0.0912329
0.0707188
0.0373458
0.0497814
0.0632983
0.0759191
0.0869383
0.0950881
0.0996525
0.100135
0.096487
0.0887324
0.077314
0.0630681
0.0471871
0.0311246
0.0164678
0.00477734
-0.00258634
-0.00463125
-0.000870648
0.0085756
0.0229521
0.0409117
0.0606533
0.0801021
0.0971575
0.109112
0.114491
0.112507
0.103857
0.089275
0.0709235
0.00329925
0.00469048
0.00723403
0.00970356
0.011707
0.0123345
0.0109197
0.006892
-0.000348989
-0.011003
-0.0248357
-0.0411572
-0.0588352
-0.0763755
-0.0920566
-0.104112
-0.110943
-0.111324
-0.104581
-0.0907264
-0.0705103
-0.0453926
-0.0173971
0.011088
0.0375924
0.0591198
0.0737511
0.0803394
0.0793876
0.0714447
0.0587253
-0.0152078
-0.0204224
-0.0251274
-0.0300475
-0.0354241
-0.0419045
-0.0499839
-0.0600924
-0.0728905
-0.0884857
-0.106575
-0.126411
-0.146822
-0.166283
-0.183056
-0.195368
-0.201628
-0.200629
-0.191723
-0.174957
-0.15112
-0.121718
-0.0888276
-0.0548969
-0.0224667
0.00556784
0.0271232
0.0408882
0.0471666
0.0462955
0.0403257
-0.0203807
-0.0281969
-0.0365323
-0.0458181
-0.0562408
-0.0682403
-0.0820349
-0.0977401
-0.115695
-0.135695
-0.157197
-0.179304
-0.200802
-0.220242
-0.236059
-0.246731
-0.250956
-0.247818
-0.236922
-0.218488
-0.193382
-0.163074
-0.129509
-0.0949234
-0.0616067
-0.0320071
-0.0080324
0.00910224
0.019592
0.02363
0.0229759
-0.018642
-0.0268431
-0.0365843
-0.0481063
-0.0615251
-0.0770522
-0.0945407
-0.11368
-0.134301
-0.155809
-0.177391
-0.198046
-0.216638
-0.23198
-0.242928
-0.24849
-0.247935
-0.240892
-0.227408
-0.20799
-0.183592
-0.155563
-0.125532
-0.0952688
-0.06651
-0.0409909
-0.0201034
-0.00469245
0.00547964
0.0105933
0.0120782
-0.0172465
-0.0257226
-0.0364179
-0.0493706
-0.0645171
-0.0817532
-0.100513
-0.120028
-0.139644
-0.158435
-0.175432
-0.189684
-0.200331
-0.206679
-0.208249
-0.20482
-0.19645
-0.183485
-0.166536
-0.146444
-0.124228
-0.101019
-0.0779735
-0.0561902
-0.036619
-0.0201135
-0.00728441
0.00161503
0.0070151
0.00921651
0.00934183
-0.0209831
-0.031022
-0.0434339
-0.0579753
-0.0742619
-0.0917736
-0.109528
-0.12635
-0.141284
-0.153243
-0.161286
-0.16472
-0.163172
-0.156633
-0.145458
-0.130328
-0.112184
-0.0921388
-0.0713719
-0.051027
-0.03212
-0.0154686
-0.00164226
0.00905481
0.016583
0.0210344
0.0227082
0.0220518
0.0197762
0.0163768
0.0127109
-0.0303278
-0.0433172
-0.0583104
-0.0747051
-0.0917063
-0.108329
-0.123249
-0.135014
-0.142624
-0.145027
-0.141518
-0.131837
-0.116235
-0.0954761
-0.0707778
-0.0437015
-0.0160046
0.0105313
0.0342729
0.0538902
0.0684726
0.0775952
0.0813259
0.080177
0.0750142
0.0668332
0.0568045
0.0460453
0.0355371
0.0259544
0.0179151
-0.0416831
-0.0578822
-0.0753476
-0.093113
-0.109991
-0.124585
-0.135372
-0.140806
-0.140064
-0.132313
-0.117219
-0.095043
-0.0666717
-0.0335805
0.00227893
0.0386504
0.0731795
0.103642
0.128161
0.14539
0.154639
0.155919
0.149912
0.137862
0.121408
0.102309
0.0824195
0.0633632
0.0462912
0.0319609
0.0207426
-0.0494089
-0.0673564
-0.0857012
-0.103211
-0.118446
-0.129764
-0.135629
-0.134597
-0.126144
-0.109762
-0.0855296
-0.0541885
-0.0171396
0.023632
0.065707
0.10644
0.143199
0.173615
0.195823
0.208639
0.21168
0.20539
0.190966
0.170208
0.145298
0.118538
0.0921837
0.0681213
0.0475159
0.0310757
0.0188883
-0.0486167
-0.0654202
-0.0818554
-0.0966111
-0.108225
-0.115042
-0.115706
-0.109037
-0.0948077
-0.0728442
-0.0435756
-0.00807498
0.0319684
0.0743508
0.11652
0.155793
0.189599
0.215727
0.232546
0.239178
0.235586
0.222579
0.201711
0.175104
0.145206
0.114598
0.0856268
0.0601846
0.0392963
0.0235036
0.0125739
-0.0374668
-0.0498085
-0.0612889
-0.0707439
-0.0769296
-0.0784225
-0.0741892
-0.0634104
-0.0460457
-0.0221866
0.00753308
0.0419192
0.0792611
0.117441
0.154094
0.186814
0.213371
0.231936
0.241266
0.24085
0.230971
0.212686
0.187715
0.158259
0.126758
0.0958045
0.0675809
0.0437703
0.0251496
0.0120325
0.0038543
-0.0180197
-0.02341
-0.0277904
-0.0303401
-0.0302141
-0.0264021
-0.0182576
-0.00532588
0.0124008
0.0346914
0.0608827
0.0898733
0.12017
0.149986
0.177379
0.200426
0.217404
0.226974
0.228328
0.2213
0.206405
0.184806
0.158201
0.128658
0.0983901
0.0697811
0.0446829
0.0244437
0.00954887
8.62991e-05
-0.00480801
0.00461346
0.00689074
0.010005
0.0143226
0.0202212
0.0282254
0.0386234
0.0515817
0.0672183
0.0853017
0.105297
0.126359
0.147372
0.167016
0.183884
0.196606
0.203999
0.205201
0.199787
0.187845
0.17
0.14738
0.121511
0.0941812
0.0672451
0.0427381
0.022116
0.00635981
-0.00432088
-0.010015
-0.0118068
0.0243442
0.0329869
0.0420635
0.0514853
0.0612142
0.0713341
0.0818777
0.0928526
0.104572
0.116919
0.129592
0.142086
0.153715
0.163653
0.171008
0.174916
0.174653
0.169732
0.15999
0.145646
0.127312
0.105969
0.0828815
0.0594866
0.0372387
0.0177794
0.00218675
-0.00888281
-0.0154446
-0.0177
-0.0168418
0.036438
0.0486498
0.0607842
0.0723954
0.083168
0.0928785
0.101443
0.10885
0.115621
0.121819
0.127411
0.132237
0.136002
0.138299
0.138647
0.13656
0.131629
0.123595
0.11242
0.0983269
0.0818248
0.0636828
0.044872
0.0264821
0.0095976
-0.00449875
-0.015039
-0.0216075
-0.0243824
-0.0236229
-0.0205144
0.0390968
0.0516302
0.0636074
0.0743773
0.0835166
0.0906606
0.0957347
0.0988117
0.100563
0.101239
0.101045
0.100094
0.0983876
0.0958089
0.0921484
0.0871475
0.0805637
0.0722324
0.062123
0.0503851
0.0373697
0.0236221
0.00983923
-0.00318977
-0.01468
-0.0236339
-0.0295115
-0.0320504
-0.0315313
-0.0282358
-0.0232253
0.0337777
0.0440356
0.0533868
0.0611367
0.0668978
0.0703098
0.0713866
0.0703297
0.0678692
0.0643981
0.0602843
0.0558151
0.0511651
0.0463791
0.0413836
0.0360204
0.0301011
0.0234612
0.0160135
0.0077952
-0.00100534
-0.0100446
-0.018852
-0.0268732
-0.0335451
-0.038078
-0.040088
-0.0393924
-0.0363205
-0.0311513
-0.0247707
0.024097
0.0308602
0.0365626
0.0406061
0.042718
0.0426335
0.0404632
0.0365112
0.0314632
0.0257725
0.0198695
0.0141052
0.00871601
0.00380258
-0.000664383
-0.00481649
-0.00884193
-0.0129361
-0.0172519
-0.0218528
-0.0266838
-0.03156
-0.036184
-0.040179
-0.0431444
-0.0444535
-0.0438262
-0.0411347
-0.0366869
-0.0307376
-0.0239973
0.0141159
0.017578
0.02005
0.0210926
0.0205615
0.0183015
0.0144911
0.00946118
0.0037698
-0.00215926
-0.00792786
-0.0132128
-0.0177968
-0.0215877
-0.024615
-0.0270067
-0.0289528
-0.0306633
-0.0323249
-0.0340598
-0.035898
-0.0377633
-0.039484
-0.0408153
-0.0414816
-0.0410125
-0.0392185
-0.0359541
-0.0314958
-0.0260376
-0.0201106
0.00653905
0.0077437
0.00820137
0.0076462
0.00602395
0.0032637
-0.000454472
-0.00484903
-0.00953599
-0.0141927
-0.0185207
-0.0222818
-0.0253204
-0.0275782
-0.0290906
-0.0299705
-0.0303816
-0.0305082
-0.030522
-0.0305519
-0.0306617
-0.030838
-0.0309959
-0.0309924
-0.0306556
-0.0296834
-0.027928
-0.025281
-0.0219352
-0.0179842
-0.0138266
0.00448598
-0.00196408
-0.01353
-0.0311761
-0.0544708
-0.0827357
-0.113845
-0.1452
-0.173923
-0.19749
-0.21381
-0.221511
-0.220105
-0.210065
-0.192745
-0.170205
-0.144934
-0.119544
-0.096448
-0.0775598
-0.0640788
-0.0563688
-0.0539735
-0.0557262
-0.0599883
-0.0643419
-0.0669654
-0.0663607
-0.0622624
-0.0544375
-0.0442962
0.0302404
0.0282579
0.0183469
-0.00143133
-0.0307376
-0.0687997
-0.112659
-0.158527
-0.201745
-0.238411
-0.26523
-0.279964
-0.281694
-0.270949
-0.249598
-0.220591
-0.187544
-0.154273
-0.124308
-0.10044
-0.0843936
-0.0766449
-0.0764453
-0.0819872
-0.0907593
-0.0989758
-0.104047
-0.103827
-0.0978014
-0.0857579
-0.0696267
0.0762864
0.0861982
0.0856913
0.0715731
0.0436992
0.00257205
-0.0483885
-0.104616
-0.159703
-0.208534
-0.246678
-0.270986
-0.279955
-0.273905
-0.254875
-0.226304
-0.192513
-0.158118
-0.127418
-0.103817
-0.0894071
-0.0847393
-0.0888408
-0.0994271
-0.113337
-0.125771
-0.133485
-0.134031
-0.126707
-0.111387
-0.0904166
0.136837
0.164926
0.181002
0.180479
0.162396
0.126643
0.0765592
0.0168892
-0.0445802
-0.101938
-0.14991
-0.184553
-0.203705
-0.207216
-0.196864
-0.176025
-0.149117
-0.120955
-0.0960773
-0.078111
-0.0693002
-0.0702444
-0.0799065
-0.0958334
-0.114621
-0.131076
-0.141753
-0.143992
-0.137137
-0.121148
-0.0985277
0.196816
0.244884
0.280605
0.298216
0.295838
0.272521
0.23104
0.175703
0.114976
0.0549715
0.00133068
-0.0415122
-0.0708137
-0.0857998
-0.0876244
-0.0790822
-0.0640748
-0.0469965
-0.0320818
-0.0227791
-0.0212816
-0.0282538
-0.0428192
-0.0627526
-0.0849068
-0.104456
-0.118177
-0.123565
-0.119982
-0.107414
-0.088083
0.238367
0.302023
0.35432
0.388808
0.402864
0.394739
0.366374
0.32122
0.267587
0.211197
0.157527
0.111109
0.075043
0.0507016
0.0377161
0.0341859
0.0371268
0.0429883
0.0482185
0.0498115
0.0457346
0.0351909
0.0186644
-0.00221474
-0.024999
-0.0459353
-0.0623485
-0.0721048
-0.074543
-0.0695243
-0.0585904
0.248475
0.318628
0.379639
0.425024
0.451809
0.457679
0.44367
0.412152
0.370399
0.323205
0.275367
0.23107
0.19346
0.164353
0.144161
0.13201
0.12605
0.123824
0.122692
0.120247
0.114666
0.104937
0.0909508
0.0734436
0.0538121
0.0341865
0.0164427
0.00219215
-0.00781765
-0.0131695
-0.0143767
0.223574
0.289262
0.34875
0.396194
0.428734
0.443829
0.441731
0.423731
0.395381
0.360213
0.321974
0.284164
0.249691
0.220608
0.197994
0.181969
0.171842
0.166306
0.163694
0.162233
0.160289
0.156568
0.150234
0.140954
0.128873
0.114226
0.0979366
0.0809973
0.0642773
0.0485533
0.0344948
0.171093
0.223097
0.271955
0.312953
0.343713
0.361788
0.366845
0.359248
0.342477
0.3187
0.29048
0.260469
0.231174
0.204733
0.182766
0.166281
0.155664
0.150701
0.150649
0.15433
0.160272
0.16686
0.172493
0.175724
0.175396
0.169868
0.159025
0.143164
0.12324
0.100342
0.0762616
0.106365
0.139883
0.172775
0.201633
0.224731
0.239915
0.246486
0.244129
0.234329
0.218054
0.196798
0.172432
0.147071
0.122884
0.101929
0.0859674
0.0763086
0.0736773
0.0781239
0.0889787
0.104892
0.123943
0.143827
0.162082
0.176357
0.183437
0.182159
0.17209
0.154164
0.129624
0.101117
0.0467852
0.0623446
0.0787814
0.0938558
0.106433
0.114714
0.117821
0.115054
0.106372
0.0919151
0.0724412
0.0492943
0.02434
-0.00018368
-0.0218609
-0.0383421
-0.0476095
-0.0482289
-0.0395547
-0.0218808
0.00352564
0.0345
0.0681911
0.101343
0.130671
0.151887
0.162892
0.162561
0.151679
0.13143
0.104926
0.00547723
0.00783389
0.0113841
0.0146939
0.0170146
0.0168568
0.0133256
0.00562595
-0.00709269
-0.0250359
-0.0477486
-0.0740793
-0.10221
-0.129791
-0.154148
-0.172562
-0.182596
-0.18241
-0.171025
-0.148532
-0.11616
-0.0762222
-0.0318914
0.0131097
0.054941
0.0888516
0.112062
0.122902
0.121925
0.110087
0.0905538
-0.0129176
-0.0172773
-0.02115
-0.0255781
-0.0311489
-0.0391088
-0.0502254
-0.0651143
-0.0846832
-0.109024
-0.137581
-0.169107
-0.201692
-0.232903
-0.259991
-0.280173
-0.290961
-0.290484
-0.277746
-0.252836
-0.216998
-0.172581
-0.122811
-0.0714847
-0.0225374
0.0194302
0.0513601
0.0713194
0.0796418
0.0769954
0.0662722
-0.0127797
-0.0183983
-0.0248305
-0.0330287
-0.0435418
-0.0573855
-0.0750505
-0.09674
-0.122836
-0.152991
-0.186291
-0.221258
-0.255903
-0.287865
-0.314614
-0.333691
-0.34299
-0.341014
-0.32709
-0.301512
-0.265591
-0.221584
-0.172488
-0.121762
-0.0729509
-0.0299677
0.00435458
0.0282016
0.0418053
0.0456194
0.0420744
-0.00447337
-0.00881058
-0.0153206
-0.0249545
-0.0381844
-0.0557186
-0.0776174
-0.103505
-0.132959
-0.165061
-0.1985
-0.231627
-0.26255
-0.28927
-0.309845
-0.322567
-0.326133
-0.319809
-0.303535
-0.277985
-0.244558
-0.205291
-0.162682
-0.11947
-0.0783604
-0.0421736
-0.0130066
0.00785098
0.020713
0.0259819
0.0255791
0.000750223
-0.00302432
-0.00991975
-0.0207613
-0.0357705
-0.0552014
-0.0785587
-0.104815
-0.132791
-0.16108
-0.188125
-0.212338
-0.232217
-0.24647
-0.254113
-0.254549
-0.247616
-0.233611
-0.213273
-0.187739
-0.158471
-0.127152
-0.095551
-0.0653907
-0.0381977
-0.0154442
0.00190836
0.013423
0.0196742
0.0211832
0.0194075
-0.00435462
-0.0103725
-0.0197753
-0.0330159
-0.0498466
-0.0699192
-0.09213
-0.114843
-0.136425
-0.155212
-0.169683
-0.178612
-0.181201
-0.177154
-0.166703
-0.150568
-0.129874
-0.106034
-0.0806075
-0.0551589
-0.031124
-0.009703
0.00821974
0.0221112
0.0317994
0.0372488
0.0388256
0.0371058
0.0330264
0.0273238
0.0210636
-0.0203294
-0.0314671
-0.0455436
-0.0624064
-0.0811919
-0.10088
-0.119818
-0.135925
-0.147519
-0.152983
-0.151125
-0.141354
-0.123782
-0.0992477
-0.0692513
-0.0358058
-0.00123406
0.0320687
0.0618788
0.0863637
0.104251
0.114926
0.118452
0.115502
0.107239
0.0949929
0.0803961
0.0649853
0.0500446
0.036506
0.0250881
-0.0414213
-0.0587334
-0.0780128
-0.098407
-0.118446
-0.136504
-0.150559
-0.158346
-0.158495
-0.149701
-0.131324
-0.103542
-0.0674085
-0.0248164
0.0216472
0.0689405
0.113856
0.153341
0.18481
0.2064
0.217156
0.217104
0.2072
0.189185
0.165352
0.138173
0.110259
0.0838619
0.0604866
0.0411389
0.0261857
-0.0586471
-0.0804343
-0.102996
-0.124882
-0.144204
-0.15894
-0.166972
-0.166148
-0.155608
-0.134533
-0.10291
-0.0616426
-0.0125609
0.0416719
0.0977638
0.152087
0.201012
0.241266
0.270262
0.286368
0.289068
0.279002
0.257866
0.228196
0.193063
0.155742
0.119392
0.0866226
0.0589634
0.037327
0.0216913
-0.0639939
-0.0861896
-0.10806
-0.127833
-0.143523
-0.153014
-0.154388
-0.145875
-0.127134
-0.0978635
-0.0585987
-0.0107686
0.0433362
0.100699
0.157807
0.210958
0.256598
0.291667
0.313916
0.322142
0.316317
0.297597
0.26817
0.231021
0.189579
0.147515
0.108079
0.0738623
0.0462255
0.0258424
0.0122682
-0.053899
-0.0715374
-0.0880791
-0.101798
-0.110953
-0.113656
-0.108429
-0.0940647
-0.0705761
-0.0380957
0.00249054
0.0495227
0.10063
0.15288
0.203007
0.24769
0.283863
0.309015
0.321456
0.320509
0.306598
0.281217
0.246774
0.206335
0.163288
0.12129
0.0833089
0.0516164
0.0272617
0.0106058
0.000787938
-0.0306186
-0.0397008
-0.0473608
-0.0522521
-0.0531494
-0.0486344
-0.0378005
-0.02004
0.00451483
0.0354717
0.0718386
0.11203
0.153938
0.195072
0.232755
0.264356
0.28754
0.300512
0.302217
0.29248
0.272056
0.242577
0.2064
0.166369
0.125516
0.0871538
0.0537355
0.0270417
0.00774308
-0.00410357
-0.00971076
-0.00109454
-4.21891e-05
0.00231846
0.00674752
0.0138363
0.0244166
0.0388436
0.0572175
0.0795104
0.105268
0.133622
0.163299
0.192687
0.219941
0.243138
0.260445
0.270315
0.27166
0.263989
0.247512
0.223148
0.192476
0.157595
0.120927
0.0849644
0.0524751
0.0253175
0.00474548
-0.008944
-0.0159346
-0.0176765
0.0259961
0.0358795
0.0466181
0.058351
0.071084
0.0850916
0.100317
0.116546
0.133995
0.152318
0.170928
0.188998
0.205495
0.219261
0.229109
0.23394
0.232883
0.225411
0.21144
0.191386
0.166173
0.137183
0.106136
0.0749514
0.0455354
0.0200602
-0.000169582
-0.0143593
-0.0225341
-0.0250391
-0.0234223
0.043616
0.0587951
0.0741868
0.0894307
0.104122
0.118118
0.131159
0.142941
0.153956
0.164078
0.173069
0.180557
0.186054
0.188987
0.188758
0.184819
0.176769
0.164435
0.147937
0.127734
0.104625
0.0797136
0.0543211
0.0298775
0.00776695
-0.0103597
-0.023642
-0.0316254
-0.0345845
-0.0329602
-0.02827
0.0487557
0.0648904
0.080592
0.0952058
0.108143
0.119036
0.12762
0.133686
0.137935
0.140491
0.141436
0.14078
0.138443
0.134265
0.128036
0.119539
0.108626
0.0952745
0.0796423
0.0621072
0.0432746
0.0239571
0.00511325
-0.0122311
-0.0270996
-0.0382296
-0.0450782
-0.0474072
-0.04566
-0.0403303
-0.0327792
0.0429707
0.0564617
0.0689974
0.0798547
0.0884613
0.0944027
0.0975473
0.0978848
0.0962134
0.0928657
0.0881631
0.0823668
0.0756479
0.0680758
0.0596309
0.0502378
0.0398229
0.0283673
0.0159551
0.00281738
-0.0106518
-0.0239009
-0.0362632
-0.0470157
-0.0554673
-0.0606127
-0.0621131
-0.0598401
-0.0543253
-0.0460768
-0.0362542
0.030965
0.0400132
0.0478271
0.0537914
0.0574748
0.0585414
0.0570236
0.0531045
0.0475515
0.0408129
0.0333259
0.0254627
0.0174945
0.00957077
0.00172564
-0.00609454
-0.0139826
-0.022021
-0.0302339
-0.0385411
-0.0467353
-0.0544768
-0.0613225
-0.0667711
-0.0703295
-0.0711778
-0.069095
-0.0640257
-0.0564724
-0.0469121
-0.0363063
0.0182247
0.0229439
0.0264378
0.0282768
0.0282025
0.0259962
0.0218205
0.0159678
0.00907457
0.00159674
-0.00603024
-0.0134405
-0.020372
-0.0266872
-0.0323684
-0.037494
-0.0421979
-0.046625
-0.0508865
-0.0550165
-0.0589472
-0.0624975
-0.0653928
-0.0672965
-0.0678624
-0.0664522
-0.0629361
-0.0571987
-0.0497001
-0.0408205
-0.0313033
0.00847766
0.0101808
0.0109053
0.0104208
0.00859998
0.00532635
0.000804775
-0.00466949
-0.0106469
-0.0167574
-0.0226558
-0.0280592
-0.0327733
-0.0367093
-0.0398792
-0.0423772
-0.0443492
-0.045958
-0.0473477
-0.0486087
-0.0497556
-0.0507157
-0.0513402
-0.0514243
-0.0507446
-0.0488823
-0.0457033
-0.0411124
-0.035445
-0.0289169
-0.0220966
0.000379757
-0.00842642
-0.0230856
-0.0443868
-0.0716193
-0.103706
-0.138101
-0.171639
-0.200984
-0.223245
-0.23614
-0.238317
-0.229547
-0.210776
-0.184021
-0.152109
-0.118335
-0.0860498
-0.0582575
-0.0372466
-0.024324
-0.0196835
-0.022445
-0.030819
-0.0424257
-0.053975
-0.0628652
-0.0671606
-0.0663464
-0.0601028
-0.0501062
0.0279197
0.0234971
0.0100272
-0.0143431
-0.0489182
-0.0923636
-0.141198
-0.190773
-0.235693
-0.271482
-0.294512
-0.302517
-0.294891
-0.272797
-0.239017
-0.19758
-0.153236
-0.110852
-0.0748065
-0.0484229
-0.0335782
-0.0305034
-0.0378379
-0.0528759
-0.0720394
-0.0902445
-0.103808
-0.110011
-0.10797
-0.0973941
-0.0806465
0.0794101
0.08792
0.0844448
0.0657124
0.0319001
-0.0158304
-0.0735134
-0.135483
-0.19428
-0.243992
-0.279668
-0.298012
-0.297789
-0.280003
-0.247728
-0.205667
-0.159492
-0.115089
-0.0777904
-0.0516629
-0.0390006
-0.040073
-0.0531798
-0.0749589
-0.100965
-0.124781
-0.141859
-0.149125
-0.145442
-0.130664
-0.107711
0.148235
0.17695
0.191664
0.187482
0.16363
0.120685
0.0624133
-0.00517551
-0.0729605
-0.134037
-0.182412
-0.213816
-0.226215
-0.220051
-0.198094
-0.164997
-0.126577
-0.0889881
-0.0578852
-0.0376301
-0.0307227
-0.0375087
-0.0562209
-0.0832993
-0.11401
-0.141419
-0.160752
-0.168723
-0.164254
-0.147333
-0.121157
0.216241
0.267144
0.303412
0.318756
0.3113
0.280732
0.230066
0.164929
0.095295
0.0283952
-0.0292462
-0.0726749
-0.0990764
-0.108064
-0.101601
-0.0836019
-0.0592451
-0.0341906
-0.0137581
-0.00214948
-0.00187583
-0.0134468
-0.035382
-0.0644915
-0.0964433
-0.124787
-0.145118
-0.154383
-0.151575
-0.136739
-0.112791
0.262196
0.330058
0.384175
0.417448
0.427099
0.411922
0.373899
0.31776
0.253332
0.187482
0.126659
0.0760586
0.0390558
0.0168774
0.00860888
0.0114901
0.0214923
0.0339802
0.0444243
0.0490864
0.0455432
0.0329936
0.012294
-0.01424
-0.0432726
-0.0697604
-0.0901232
-0.101767
-0.103742
-0.095941
-0.0804687
0.27112
0.345426
0.408389
0.452873
0.475671
0.474876
0.451418
0.408798
0.35562
0.297728
0.240859
0.189928
0.148505
0.118491
0.100045
0.0917535
0.0910291
0.0945904
0.0989932
0.101158
0.0988001
0.0907101
0.0768466
0.0582549
0.0368113
0.0154232
-0.00348655
-0.017941
-0.026982
-0.0301431
-0.0282475
0.239672
0.308059
0.368461
0.414514
0.443128
0.452024
0.44127
0.413064
0.373939
0.328269
0.280615
0.235171
0.195349
0.163472
0.140643
0.126768
0.120756
0.120772
0.124555
0.129747
0.134202
0.136227
0.13473
0.129274
0.120029
0.107404
0.0924867
0.0765439
0.0605871
0.0455643
0.0321625
0.17794
0.230508
0.278706
0.317488
0.344307
0.356817
0.354486
0.338305
0.312297
0.27921
0.242218
0.204569
0.169298
0.138955
0.115426
0.0998232
0.0924705
0.0929332
0.100109
0.112353
0.127652
0.143823
0.158708
0.170358
0.177203
0.177167
0.16993
0.155961
0.136298
0.112324
0.0861853
0.105224
0.137591
0.168673
0.194893
0.214412
0.225005
0.225776
0.216741
0.199514
0.175373
0.146216
0.114399
0.0825626
0.0534066
0.0294719
0.0129134
0.00529746
0.00742814
0.0192366
0.0397225
0.0670067
0.0984788
0.131038
0.161388
0.186387
0.201863
0.206126
0.198784
0.180803
0.153798
0.121046
0.0426374
0.0567723
0.0715676
0.0846645
0.0948117
0.0999541
0.0990105
0.0913271
0.0767048
0.0553847
0.0283735
-0.00257788
-0.0350593
-0.0661929
-0.0928849
-0.112139
-0.121404
-0.118898
-0.103875
-0.0768163
-0.0394724
0.00524266
0.053525
0.101054
0.143478
0.175181
0.193289
0.196564
0.18577
0.162481
0.130599
0.0052414
0.00784959
0.0116666
0.0150377
0.0170081
0.0156491
0.009818
-0.00145896
-0.0192862
-0.0438789
-0.0745966
-0.10989
-0.147345
-0.183859
-0.215919
-0.239963
-0.252811
-0.252071
-0.23649
-0.206219
-0.162905
-0.109608
-0.0505173
0.00946882
0.0652951
0.110698
0.141976
0.157192
0.156834
0.142196
0.117269
-0.00299546
-0.00372808
-0.00395324
-0.00516791
-0.0083254
-0.0152726
-0.0270914
-0.0447164
-0.0692063
-0.10066
-0.138302
-0.18043
-0.22446
-0.267112
-0.304689
-0.333455
-0.350067
-0.351993
-0.337864
-0.307744
-0.263225
-0.207351
-0.144333
-0.0791321
-0.0169068
0.0362376
0.0762943
0.10095
0.110439
0.105686
0.0903241
0.0104754
0.012621
0.0137993
0.0123118
0.00706534
-0.00366922
-0.02075
-0.0447397
-0.0759214
-0.113857
-0.157313
-0.204263
-0.251968
-0.297178
-0.336392
-0.366201
-0.38365
-0.386592
-0.373975
-0.346038
-0.304381
-0.251871
-0.192373
-0.130385
-0.070544
-0.0180907
0.0232921
0.0513792
0.0662914
0.0686552
0.061478
0.0309547
0.0379936
0.0424426
0.0423567
0.0365876
0.0236745
0.00319054
-0.0247936
-0.0594488
-0.0996247
-0.143565
-0.188994
-0.233246
-0.273468
-0.306836
-0.330814
-0.343392
-0.343307
-0.330208
-0.304744
-0.268561
-0.22419
-0.17482
-0.124002
-0.0752938
-0.0325296
0.00155268
0.0253228
0.0389969
0.0430927
0.0399091
0.0431781
0.0527029
0.0584369
0.0584473
0.0518059
0.0375506
0.0158936
-0.0123192
-0.0452391
-0.0810879
-0.117773
-0.153059
-0.184728
-0.210766
-0.229506
-0.239758
-0.240895
-0.2329
-0.216378
-0.192511
-0.162978
-0.129823
-0.0952825
-0.0616015
-0.030836
-0.00508291
0.0143398
0.0268109
0.0328438
0.0330493
0.0290629
0.0376093
0.044498
0.0471704
0.0441361
0.0350258
0.0196031
-0.00115004
-0.0256262
-0.0513789
-0.0762872
-0.0982748
-0.115534
-0.126695
-0.130963
-0.128164
-0.118731
-0.103621
-0.0841897
-0.0620449
-0.0388787
-0.0163125
0.00423652
0.0216602
0.035217
0.0445546
0.0494286
0.0501517
0.0473136
0.0418386
0.0345465
0.0265042
0.0138352
0.0130039
0.00837804
-0.000684215
-0.0137448
-0.0301893
-0.0482828
-0.0658349
-0.0803639
-0.0897857
-0.0924257
-0.0872538
-0.0740288
-0.05336
-0.0266494
0.00406384
0.0363357
0.0675881
0.0953918
0.117724
0.133171
0.141049
0.141431
0.135075
0.123287
0.107569
0.0897643
0.0716049
0.0544079
0.0391827
0.0265034
-0.0200604
-0.0311059
-0.0448557
-0.0608941
-0.0779355
-0.0945597
-0.108474
-0.117215
-0.118769
-0.111443
-0.0942587
-0.0671542
-0.0310751
0.0120457
0.0594448
0.107797
0.153551
0.193308
0.224178
0.244093
0.252021
0.248055
0.233358
0.20999
0.180629
0.148215
0.115748
0.0857945
0.0599206
0.0391878
0.0237089
-0.0515291
-0.0714058
-0.0925568
-0.113585
-0.132558
-0.147473
-0.155824
-0.155244
-0.144485
-0.122484
-0.0890757
-0.0451418
0.00737109
0.0655441
0.125718
0.183825
0.235785
0.277912
0.307308
0.322171
0.321988
0.307583
0.280988
0.245203
0.203818
0.160744
0.119605
0.0833437
0.0535646
0.0311952
0.0158882
-0.0690464
-0.092924
-0.116664
-0.138223
-0.155408
-0.165977
-0.167615
-0.158397
-0.137878
-0.105693
-0.0624235
-0.00966631
0.0500048
0.11319
0.175927
0.234044
0.283543
0.321002
0.343928
0.351034
0.342383
0.319385
0.284632
0.241605
0.194275
0.146969
0.103379
0.0663634
0.0373484
0.0169757
0.00444408
-0.0666932
-0.0881439
-0.108352
-0.125106
-0.136389
-0.140101
-0.13447
-0.118246
-0.0916
-0.0547828
-0.00890007
0.0440824
0.101421
0.159769
0.215438
0.264718
0.304211
0.331176
0.343812
0.341469
0.324739
0.295407
0.256272
0.210847
0.162977
0.116869
0.0758348
0.0422914
0.017324
0.00122383
-0.00721946
-0.0460697
-0.0594787
-0.0710128
-0.0787583
-0.0812315
-0.076778
-0.0643814
-0.0435281
-0.0147101
0.0214055
0.0634807
0.109548
0.157111
0.203316
0.245171
0.279807
0.304739
0.31812
0.318942
0.307177
0.283809
0.250761
0.210718
0.166859
0.122528
0.0813927
0.0461139
0.0184763
-0.000856196
-0.0119193
-0.01624
-0.0150346
-0.017549
-0.0180654
-0.0152829
-0.00843109
0.00353278
0.0208581
0.0434201
0.0707071
0.101876
0.135639
0.170322
0.203962
0.234451
0.259701
0.277823
0.287314
0.287219
0.277254
0.257878
0.230286
0.196326
0.15834
0.118955
0.0808075
0.0468014
0.0188675
-0.00186991
-0.0151744
-0.0213342
-0.0220693
0.0158866
0.0236112
0.0330192
0.0446982
0.0587309
0.0755441
0.0947854
0.115916
0.138614
0.162084
0.185293
0.207033
0.225992
0.240861
0.250433
0.253723
0.250075
0.239256
0.221514
0.1976
0.168743
0.136567
0.102966
0.0699427
0.0394095
0.0134893
-0.00655531
-0.0201631
-0.0274845
-0.028984
-0.0264447
0.0376965
0.0521273
0.0676288
0.0841773
0.101354
0.119096
0.136724
0.153556
0.169549
0.18411
0.196569
0.20622
0.212366
0.21438
0.211765
0.204208
0.191645
0.174305
0.152729
0.127766
0.100542
0.0723891
0.0447523
0.0190746
-0.00334433
-0.0210109
-0.0331876
-0.0397237
-0.0410896
-0.0378761
-0.0318288
0.0460356
0.0624028
0.0791261
0.0957888
0.111729
0.126592
0.139652
0.150319
0.1588
0.164774
0.167935
0.16801
0.164774
0.158083
0.147894
0.134291
0.117524
0.0980237
0.0764058
0.0534642
0.0301411
0.0074775
-0.01346
-0.0316582
-0.0462582
-0.0561755
-0.0610351
-0.06094
-0.0565936
-0.0486859
-0.038816
0.0419534
0.0560808
0.069893
0.0828367
0.0942454
0.103668
0.11055
0.114541
0.11601
0.114904
0.111219
0.104989
0.0962883
0.0852351
0.071998
0.0568103
0.0399948
0.0219762
0.00328471
-0.0154428
-0.0334814
-0.0500512
-0.0643713
-0.075721
-0.0835144
-0.0868775
-0.085651
-0.0800498
-0.0709102
-0.0589817
-0.0456919
0.0304441
0.0400698
0.0489197
0.0564971
0.0622863
0.065889
0.0670087
0.0655593
0.0619655
0.0563751
0.0489723
0.0399607
0.0295483
0.0179398
0.00533905
-0.00803928
-0.0219466
-0.0360838
-0.0500891
-0.0635263
-0.0758913
-0.0866299
-0.0951794
-0.101018
-0.103722
-0.10253
-0.0973788
-0.0885361
-0.0768024
-0.0629208
-0.0481389
0.0176578
0.0226968
0.026786
0.0295804
0.0307629
0.0300594
0.0274061
0.0229143
0.0169773
0.00984446
0.00177772
-0.00697062
-0.0161772
-0.0256593
-0.0352723
-0.0448966
-0.0544136
-0.0636847
-0.0725313
-0.0807154
-0.0879362
-0.0938356
-0.09803
-0.100146
-0.0998723
-0.0965662
-0.0902309
-0.0809795
-0.0695434
-0.0565341
-0.0429759
0.00785545
0.00963597
0.0105564
0.0104489
0.00915295
0.00651733
0.00262283
-0.00233863
-0.00805797
-0.0142814
-0.0207617
-0.0272787
-0.0336582
-0.0397823
-0.0455862
-0.0510446
-0.0561513
-0.0608962
-0.0652448
-0.0691167
-0.072376
-0.0748304
-0.0762513
-0.0763977
-0.0750552
-0.071781
-0.0665089
-0.0592935
-0.0506698
-0.0410025
-0.0311102
-0.00983485
-0.0213349
-0.0381374
-0.0606037
-0.0876653
-0.117886
-0.148543
-0.176405
-0.198312
-0.211571
-0.214235
-0.205412
-0.185432
-0.155861
-0.119351
-0.0793306
-0.039604
-0.00390066
0.0245702
0.0435109
0.0518067
0.0496432
0.0384298
0.0205862