# vtk DataFile Version 2.0
Func
ASCII
DATASET RECTILINEAR_GRID
DIMENSIONS 31 31 31
X_COORDINATES 31 double
-9.67742
-9.03226
-8.3871
-7.74194
-7.09677
-6.45161
-5.80645
-5.16129
-4.51613
-3.87097
-3.22581
-2.58065
-1.93548
-1.29032
-0.645161
0
0.645161
1.29032
1.93548
2.58065
3.22581
3.87097
4.51613
5.16129
5.80645
6.45161
7.09677
7.74194
8.3871
9.03226
9.67742
Y_COORDINATES 31 double
-9.67742
-9.03226
-8.3871
-7.74194
-7.09677
-6.45161
-5.80645
-5.16129
-4.51613
-3.87097
-3.22581
-2.58065
-1.93548
-1.29032
-0.645161
0
0.645161
1.29032
1.93548
2.58065
3.22581
3.87097
4.51613
5.16129
5.80645
6.45161
7.09677
7.74194
8.3871
9.03226
9.67742
Z_COORDINATES 31 double
-9.67742
-9.03226
-8.3871
-7.74194
-7.09677
-6.45161
-5.80645
-5.16129
-4.51613
-3.87097
-3.22581
-2.58065
-1.93548
-1.29032
-0.645161
0
0.645161
1.29032
1.93548
2.58065
3.22581
3.87097
4.51613
5.16129
5.80645
6.45161
7.09677
7.74194
8.3871
9.03226
9.67742
POINT_DATA 29791
SCALARS data double 1
LOOKUP_TABLE default
0.0250982
0.0318742
0.0374228
0.0411928
0.0430445
0.042872
0.041036
0.0380352
0.0347648
0.031785
0.0295326
0.0282474
0.0279385
0.0283779
0.0291384
0.029662
0.029354
0.0276784
0.0242475
0.0188998
0.0117407
0.00314753
-0.00627048
-0.0157369
-0.0244079
-0.0311432
-0.0353389
-0.0366167
-0.0350877
-0.0309935
-0.0250309
0.0168454
0.0208015
0.0231697
0.0240328
0.0233048
0.0211432
0.0181795
0.015
0.0125712
0.0114936
0.0121521
0.0146508
0.0187819
0.0240366
0.0296699
0.0347967
0.038518
0.0400462
0.0388188
0.0345933
0.0274912
0.0179968
0.00690344
-0.00477781
-0.0159388
-0.0251111
-0.0315539
-0.034727
-0.0345831
-0.031417
-0.0257562
-0.0135577
-0.0188865
-0.0252748
-0.0317405
-0.0379025
-0.043022
-0.0464701
-0.0475926
-0.0459615
-0.0412867
-0.0335786
-0.0231599
-0.0106634
0.0030186
0.0168192
0.0296085
0.0403177
0.0480583
0.0522227
0.052559
0.0491962
0.0426241
0.0336332
0.0232183
0.0124711
0.00271271
-0.00524829
-0.0109414
-0.0140291
-0.0146552
-0.0129309
-0.0621921
-0.0817217
-0.100861
-0.117447
-0.130384
-0.13838
-0.140738
-0.13707
-0.128088
-0.1142
-0.0961567
-0.0749695
-0.0518387
-0.0280524
-0.00488599
0.0164973
0.0351238
0.0502753
0.0615272
0.0687575
0.0721241
0.0720161
0.0689952
0.0637237
0.0569094
0.0491693
0.041055
0.0329872
0.0254941
0.0187396
0.0132952
-0.114389
-0.14879
-0.180605
-0.206539
-0.224841
-0.23369
-0.23263
-0.221822
-0.203471
-0.17897
-0.150018
-0.118424
-0.0859419
-0.0541192
-0.024195
0.00295614
0.026813
0.0471729
0.0640829
0.0777418
0.088404
0.0962927
0.101552
0.104223
0.104284
0.10119
0.0949424
0.0856318
0.0739625
0.0604077
0.0463882
-0.152225
-0.196622
-0.236126
-0.266684
-0.286174
-0.29254
-0.285809
-0.266925
-0.239546
-0.206096
-0.16919
-0.131315
-0.0945828
-0.0605344
-0.0300586
-0.00340302
0.0197011
0.0398762
0.0578962
0.0744622
0.0900194
0.104628
0.117935
0.129208
0.137492
0.140872
0.138563
0.130118
0.116257
0.0976513
0.0764574
-0.163621
-0.209505
-0.24882
-0.277168
-0.292508
-0.292942
-0.279168
-0.252999
-0.219158
-0.180904
-0.141515
-0.103857
-0.0700841
-0.0414198
-0.0181108
0.00048046
0.0156356
0.0289864
0.0421798
0.0565325
0.0727627
0.090824
0.109894
0.128474
0.144655
0.155229
0.15851
0.153377
0.140366
0.120149
0.0953941
-0.146265
-0.184944
-0.216318
-0.236191
-0.243025
-0.235427
-0.214809
-0.18376
-0.147437
-0.109572
-0.0737081
-0.0427205
-0.0184876
-0.00167688
0.00825542
0.012898
0.0145526
0.0158333
0.0192274
0.0266573
0.0391487
0.0566347
0.0779599
0.101031
0.123168
0.140224
0.149679
0.149723
0.140559
0.122644
0.0988057
-0.109028
-0.134975
-0.153878
-0.162138
-0.158955
-0.143608
-0.118076
-0.0854488
-0.0506823
-0.0175498
0.0105335
0.0309995
0.0424441
0.044817
0.039384
0.0285089
0.0152725
0.00301236
-0.00517222
-0.00690393
-0.000892834
0.0128521
0.0330366
0.057257
0.0823951
0.103882
0.118612
0.124235
0.12057
0.10773
0.0883759
-0.0669758
-0.0796378
-0.0862729
-0.0840335
-0.0728084
-0.0524758
-0.0252717
0.00562103
0.035921
0.0621891
0.0814321
0.0915535
0.0916347
0.0820926
0.0646216
0.0419615
0.0175187
-0.00509425
-0.0225524
-0.0322947
-0.0328874
-0.0242357
-0.00757087
0.0147234
0.0395021
0.0623251
0.0798906
0.0895948
0.0909597
0.0837597
0.0702765
-0.0349922
-0.0385045
-0.0373612
-0.0293753
-0.0148252
0.0060918
0.0312853
0.0579096
0.0825822
0.102445
0.115062
0.118798
0.113056
0.0984061
0.0765332
0.0500318
0.02208
-0.00396616
-0.0250093
-0.0386333
-0.0434328
-0.0392098
-0.0269712
-0.00878273
0.0125737
0.0332395
0.0501572
0.060839
0.0647025
0.0613282
0.0525602
-0.021655
-0.0226572
-0.0203455
-0.0129531
-0.000734251
0.0161652
0.0361767
0.0571448
0.0765811
0.0923091
0.102439
0.105667
0.101465
0.090198
0.0730951
0.0521129
0.0296954
0.00846597
-0.00911272
-0.0210753
-0.0262249
-0.0243052
-0.0160131
-0.00289861
0.0128999
0.0283713
0.0410855
0.04902
0.0517252
0.0488126
0.0417675
-0.0262255
-0.0308104
-0.0331732
-0.0317373
-0.0263779
-0.0168789
-0.00403997
0.010877
0.0261476
0.0402672
0.0518134
0.0596616
0.0631384
0.0621314
0.0571115
0.0490743
0.0394065
0.0296958
0.0215062
0.0161413
0.0144434
0.0166536
0.0223822
0.030658
0.0401026
0.0486064
0.0545986
0.0567603
0.0549693
0.0490864
0.0403824
-0.0397911
-0.0509208
-0.0606782
-0.0675913
-0.0710028
-0.0702037
-0.0651617
-0.0562127
-0.0444389
-0.0307215
-0.0160779
-0.00152433
0.0120445
0.023966
0.0338795
0.0417501
0.0478371
0.0526206
0.0566914
0.0606115
0.0647863
0.0693591
0.0741703
0.0787605
0.082461
0.0839462
0.0825405
0.0777003
0.0697155
0.0588278
0.0462182
-0.0497175
-0.0661408
-0.0819839
-0.0960023
-0.107104
-0.114178
-0.116468
-0.113487
-0.105688
-0.0933514
-0.0770692
-0.0576856
-0.0362109
-0.0137162
0.00877093
0.0303572
0.0503379
0.0682226
0.0837248
0.0967092
0.10713
0.114964
0.120165
0.122634
0.122243
0.118249
0.110735
0.0998407
0.0862212
0.0705029
0.0538144
-0.045363
-0.0623716
-0.0797758
-0.0968477
-0.112355
-0.125042
-0.133643
-0.137012
-0.134848
-0.126795
-0.112907
-0.093675
-0.0699789
-0.0430096
-0.0141467
0.0151744
0.0435814
0.0698687
0.0930673
0.112465
0.127608
0.138266
0.144397
0.1461
0.143584
0.136509
0.125482
0.111134
0.0943393
0.0759965
0.05711
-0.0226028
-0.0341954
-0.0475031
-0.0626457
-0.0786051
-0.0942952
-0.108155
-0.118525
-0.124146
-0.123943
-0.117272
-0.104046
-0.0847395
-0.0603554
-0.0323028
-0.00224418
0.0280732
0.0569807
0.0830251
0.105056
0.122278
0.134261
0.140914
0.142424
0.139198
0.131211
0.119386
0.104639
0.0878863
0.0701279
0.0520856
0.0145767
0.0130839
0.00822747
-0.0011831
-0.0146079
-0.0313572
-0.049709
-0.0675712
-0.0825397
-0.0927332
-0.0966893
-0.0935791
-0.0832939
-0.0664534
-0.0443051
-0.0185571
0.00883609
0.0358904
0.0607935
0.0820563
0.0986215
0.10991
0.115804
0.116588
0.112837
0.104904
0.0939175
0.080956
0.0668374
0.0525076
0.0382213
0.0558559
0.0658447
0.0706916
0.0681333
0.0581689
0.0410431
0.0186263
-0.00655948
-0.0309029
-0.0516974
-0.0666423
-0.0741601
-0.0735563
-0.065078
-0.0498268
-0.0295731
-0.00649067
0.0171224
0.0391141
0.0577015
0.0716341
0.0802757
0.0835938
0.0820806
0.0765974
0.0680419
0.0577932
0.047086
0.0365885
0.0271028
0.0182733
0.088813
0.107759
0.119967
0.122348
0.114522
0.0964371
0.070202
0.0388115
0.00695198
-0.0219282
-0.0448215
-0.0595709
-0.0650919
-0.0614687
-0.0498649
-0.0323032
-0.0113355
0.0103118
0.0300877
0.0459161
0.0564155
0.0610096
0.059911
0.0540099
0.0446493
0.0334926
0.022323
0.0126326
0.00497651
6.39202e-06
-0.00329679
0.103799
0.126217
0.140791
0.144034
0.135505
0.115139
0.0854058
0.0498044
0.0137735
-0.0186955
-0.0441518
-0.0601652
-0.0655878
-0.0606649
-0.0469216
-0.0268909
-0.0037063
0.0193369
0.0392165
0.0535609
0.0609186
0.0608899
0.0540906
0.041993
0.0266174
0.0105642
-0.00380228
-0.0145946
-0.0212838
-0.0233163
-0.0223239
0.0975023
0.116999
0.128227
0.127778
0.115496
0.0915997
0.0590007
0.0216573
-0.0146848
-0.045773
-0.0680463
-0.0791517
-0.078218
-0.0659549
-0.0444986
-0.017077
0.0124731
0.0402273
0.0626865
0.0772198
0.0823739
0.0780133
0.0652528
0.0462441
0.0237788
0.00142904
-0.0177676
-0.031443
-0.0390145
-0.0399615
-0.0363957
0.0738935
0.0854793
0.0890642
0.0817079
0.0637709
0.0359521
0.00156436
-0.0351189
-0.0685096
-0.0944024
-0.109443
-0.111642
-0.100637
-0.0777571
-0.0458243
-0.00875916
0.0289592
0.0628762
0.0891285
0.10493
0.1089
0.101202
0.0834399
0.0583943
0.0295525
0.00130498
-0.0227095
-0.0396817
-0.04895
-0.0499917
-0.0452282
0.0423027
0.0440457
0.0385952
0.0236774
0.000206205
-0.0306269
-0.0652847
-0.0994218
-0.127986
-0.147092
-0.153817
-0.146683
-0.125881
-0.0933018
-0.0522934
-0.00723817
0.0370137
0.0757507
0.104983
0.121937
0.125381
0.115745
0.0949952
0.0663336
0.033685
0.00192369
-0.0249634
-0.0439133
-0.054231
-0.055407
-0.0500073
0.0135296
0.00694471
-0.00573584
-0.0261298
-0.0529377
-0.0846491
-0.117778
-0.148208
-0.171651
-0.184728
-0.185047
-0.171625
-0.145068
-0.107566
-0.062644
-0.014732
0.0313751
0.0711026
0.10065
0.117455
0.120495
0.110384
0.0892309
0.0603344
0.0276719
-0.00384931
-0.0302744
-0.0485803
-0.0581391
-0.0585084
-0.0522715
-0.00423284
-0.0151199
-0.0309595
-0.0528886
-0.0795201
-0.109313
-0.139138
-0.165393
-0.184615
-0.194021
-0.191728
-0.177107
-0.150919
-0.115292
-0.0734844
-0.0295045
0.0123728
0.048119
0.074435
0.0891541
0.0914946
0.0821373
0.063084
0.0373757
0.00862852
-0.0186789
-0.0410245
-0.0557458
-0.062392
-0.0606547
-0.0530452
-0.00853826
-0.0190427
-0.0334987
-0.0527546
-0.0756426
-0.100881
-0.125941
-0.14794
-0.164189
-0.172501
-0.171417
-0.160478
-0.140334
-0.112712
-0.0802333
-0.0460922
-0.0136788
0.0138341
0.033874
0.0447873
0.0460352
0.0382488
0.0231073
0.003105
-0.0188329
-0.0390191
-0.054674
-0.0637406
-0.0660172
-0.0613704
-0.0521677
-0.00253108
-0.00927698
-0.0191041
-0.0327883
-0.0495765
-0.0686353
-0.0881528
-0.106045
-0.12028
-0.129217
-0.131715
-0.127345
-0.116465
-0.100211
-0.0803559
-0.0590948
-0.0387647
-0.021554
-0.00922856
-0.00290369
-0.00290625
-0.00873826
-0.0191685
-0.0324014
-0.0463652
-0.0583495
-0.066452
-0.0693214
-0.0670144
-0.0595678
-0.0491421
0.00675185
0.00465099
0.000266576
-0.0071909
-0.0174209
-0.030034
-0.0439352
-0.0577816
-0.0700945
-0.0797069
-0.0857371
-0.0877349
-0.0857447
-0.0803064
-0.0723773
-0.0631969
-0.0541155
-0.0464102
-0.0411142
-0.0388718
-0.0398507
-0.0437203
-0.0497096
-0.0567137
-0.0634846
-0.0682712
-0.069984
-0.0679451
-0.0623704
-0.053421
-0.0429111
0.0126381
0.0139329
0.0136839
0.0111262
0.00624964
-0.000941959
-0.00982738
-0.019689
-0.029527
-0.0385775
-0.0461945
-0.0519483
-0.0556701
-0.0574667
-0.0576836
-0.0568405
-0.0555399
-0.0543713
-0.0538194
-0.0541851
-0.0555372
-0.0576986
-0.0602774
-0.0627211
-0.0644267
-0.0644361
-0.0622925
-0.0577169
-0.0510389
-0.0424488
-0.0333557
0.0124039
0.0148139
0.0163888
0.0164185
0.014815
0.0114221
0.00648449
0.000350387
-0.00640976
-0.0133614
-0.0200903
-0.0262612
-0.0316457
-0.0361388
-0.039751
-0.0425845
-0.044798
-0.046567
-0.0480458
-0.0493326
-0.0504467
-0.0513208
-0.0518135
-0.0517293
-0.0508703
-0.0488366
-0.0454994
-0.0408147
-0.0351095
-0.0285331
-0.0220668
0.0487301
0.062249
0.0738456
0.0822345
0.0871181
0.088301
0.0861655
0.0814152
0.075604
0.0696613
0.0643614
0.0601948
0.0573105
0.0554996
0.054243
0.0528073
0.0503836
0.0462281
0.0397942
0.0308482
0.0195306
0.006364
-0.00779951
-0.0218703
-0.0346638
-0.044527
-0.0506783
-0.0526584
-0.0505401
-0.0446832
-0.03613
0.0418518
0.0528925
0.0615231
0.0670824
0.0693573
0.0685264
0.0652653
0.0603377
0.0554803
0.0516984
0.0497258
0.049903
0.0521216
0.0558326
0.0601268
0.0638676
0.0658728
0.0650943
0.0607808
0.052616
0.0407803
0.0259482
0.00921798
-0.00801351
-0.0242241
-0.03731
-0.0463873
-0.0508417
-0.0504837
-0.0457005
-0.0374228
0.00194338
0.000885373
-0.00170474
-0.00536064
-0.00967903
-0.0137763
-0.0170761
-0.0186671
-0.017629
-0.013426
-0.00589588
0.0047027
0.0176861
0.0320086
0.046369
0.0593626
0.0696544
0.0761428
0.0780956
0.0752518
0.0678519
0.0566023
0.0425965
0.0271837
0.0118169
-0.00167946
-0.0123514
-0.0197603
-0.0233795
-0.0234076
-0.0202722
-0.0662895
-0.0870551
-0.107069
-0.124238
-0.137191
-0.144527
-0.145529
-0.139616
-0.127645
-0.110151
-0.0880804
-0.062704
-0.0355127
-0.00808494
0.0180432
0.0415109
0.0612297
0.0764604
0.0868487
0.092421
0.0935375
0.0908104
0.0850219
0.0770273
0.067684
0.0577128
0.0476915
0.0379572
0.0291121
0.0213243
0.015061
-0.142261
-0.184352
-0.222392
-0.252555
-0.272559
-0.280486
-0.275934
-0.259056
-0.233063
-0.199995
-0.162249
-0.122294
-0.082435
-0.0446053
-0.0102331
0.0198272
0.0452542
0.0661801
0.0830581
0.0964912
0.107069
0.115226
0.121164
0.124829
0.12598
0.123556
0.11735
0.107182
0.0936837
0.07739
0.0599406
-0.199668
-0.256751
-0.306339
-0.343359
-0.364988
-0.369142
-0.35608
-0.327051
-0.287568
-0.241256
-0.191919
-0.143068
-0.0975575
-0.0573081
-0.0232033
0.00488262
0.0278688
0.0471922
0.0644707
0.0811355
0.0981325
0.115714
0.133381
0.149944
0.163769
0.171708
0.17242
0.16492
0.149644
0.127345
0.100706
-0.220755
-0.2813
-0.331788
-0.366551
-0.382827
-0.378782
-0.355638
-0.315919
-0.266828
-0.213287
-0.160136
-0.111501
-0.0703373
-0.0381173
-0.0147764
0.00113925
0.0120829
0.0210318
0.0309483
0.0442236
0.0622511
0.0851552
0.111756
0.139729
0.166004
0.185468
0.195461
0.19398
0.18106
0.157417
0.12644
-0.201003
-0.252841
-0.293444
-0.317394
-0.322566
-0.307737
-0.27518
-0.228599
-0.175912
-0.122781
-0.0744907
-0.035231
-0.00759697
0.00772179
0.0119351
0.00789251
-0.000444645
-0.00863846
-0.0124724
-0.00864831
0.00468727
0.0276263
0.0584856
0.0940387
0.130048
0.159965
0.179886
0.186761
0.180106
0.160331
0.131025
-0.152053
-0.187184
-0.211386
-0.220113
-0.212201
-0.187198
-0.148226
-0.0997977
-0.0495542
-0.00324423
0.0340023
0.0584041
0.06802
0.0630295
0.0456723
0.0199118
-0.00916541
-0.0360739
-0.0557117
-0.0641273
-0.059098
-0.0404712
-0.0101634
0.0281105
0.0694361
0.106615
0.134837
0.150221
0.151778
0.139461
0.11658
-0.0946631
-0.111872
-0.119609
-0.114431
-0.0960959
-0.0647958
-0.0240596
0.0213829
0.0649099
0.101255
0.12589
0.135698
0.129417
0.107874
0.0739058
0.0319904
-0.0123406
-0.0532299
-0.0852736
-0.104278
-0.107835
-0.0956695
-0.0696299
-0.0334249
0.00797049
0.047546
0.0801518
0.101498
0.110264
0.105963
0.0913199
-0.0498346
-0.0544339
-0.051585
-0.0387905
-0.0163431
0.0152576
0.052681
0.0916331
0.126856
0.153939
0.169164
0.170073
0.15585
0.127518
0.0878618
0.0411123
-0.0075699
-0.0527352
-0.0893404
-0.113424
-0.122634
-0.116551
-0.0966995
-0.0663182
-0.0298447
0.00659828
0.0381801
0.0607533
0.0729441
0.0740158
0.0660246
-0.0301462
-0.0310621
-0.0265604
-0.0146795
0.00429682
0.0299963
0.0598629
0.0905912
0.118272
0.139501
0.151355
0.15185
0.140247
0.117237
0.0849062
0.0465146
0.00611634
-0.0319357
-0.0635405
-0.0853963
-0.0954429
-0.0931513
-0.0795569
-0.0571041
-0.029247
-0.00079587
0.0243314
0.0426596
0.05306
0.0548323
0.0494826
-0.0352953
-0.0409
-0.0427911
-0.0391443
-0.0297583
-0.0145165
0.00518828
0.0273715
0.0492649
0.0684512
0.0826835
0.0902225
0.0900887
0.0822412
0.0676144
0.0480249
0.025949
0.00420702
-0.0144144
-0.0275603
-0.0336467
-0.0321064
-0.023452
-0.00920156
0.00838061
0.0259091
0.0407589
0.0504996
0.0544664
0.0522699
0.0450789
-0.0534453
-0.0679684
-0.0801513
-0.0881395
-0.0910306
-0.0880637
-0.0793556
-0.0655
-0.0483154
-0.0293051
-0.0101366
0.0075837
0.0225148
0.0337616
0.0409883
0.0444527
0.0449422
0.0436351
0.0418965
0.0410276
0.0420323
0.0454205
0.0511187
0.0584687
0.0663526
0.072666
0.0761679
0.0756013
0.0708412
0.061971
0.0500064
-0.0672418
-0.0891928
-0.110107
-0.128267
-0.142188
-0.150558
-0.152369
-0.146967
-0.135233
-0.117785
-0.0956799
-0.0703057
-0.0432223
-0.0159898
0.0100043
0.033687
0.0543703
0.0717688
0.0859484
0.097209
0.10595
0.112528
0.117148
0.119807
0.120309
0.117556
0.111516
0.101995
0.08933
0.0740804
0.0571684
-0.061728
-0.0848332
-0.108487
-0.131554
-0.152345
-0.169289
-0.180558
-0.184495
-0.180835
-0.169239
-0.149982
-0.12396
-0.092607
-0.057741
-0.0213673
0.0145388
0.0482105
0.0782316
0.103616
0.123805
0.138628
0.148211
0.152872
0.153022
0.149098
0.140755
0.128847
0.113976
0.0967663
0.0781142
0.0587537
-0.030746
-0.0468462
-0.0656043
-0.0869948
-0.109596
-0.13192
-0.151636
-0.166312
-0.174185
-0.173805
-0.164412
-0.146073
-0.119689
-0.0868993
-0.0498778
-0.0110756
0.0270464
0.0622622
0.0927738
0.117317
0.135209
0.146318
0.150966
0.149813
0.143716
0.132963
0.118985
0.102898
0.0854175
0.0675756
0.0497054
0.0206376
0.0180253
0.0101311
-0.00450478
-0.0250801
-0.0504473
-0.0779673
-0.104545
-0.126595
-0.141403
-0.146954
-0.142233
-0.127332
-0.103428
-0.0725964
-0.0375222
-0.00115164
0.0336527
0.0644152
0.0892645
0.107071
0.117477
0.120818
0.11798
0.110195
0.0984641
0.0846291
0.0701507
0.0557051
0.0422778
0.0295593
0.0783927
0.0913156
0.0961035
0.0897667
0.0723993
0.044754
0.0097655
-0.0287982
-0.0653965
-0.0959892
-0.117253
-0.127045
-0.124626
-0.110711
-0.0872947
-0.0573292
-0.0242783
0.00833521
0.037355
0.0603316
0.0757531
0.0831344
0.0829484
0.0764553
0.0654084
0.0517545
0.0377977
0.0253411
0.014998
0.00760989
0.00204436
0.125286
0.150459
0.164881
0.164365
0.148509
0.117834
0.075708
0.0266617
-0.0219899
-0.0649826
-0.0978522
-0.117548
-0.122759
-0.114018
-0.0935212
-0.0647479
-0.0319026
0.000666806
0.0290309
0.0501512
0.062206
0.0647315
0.058549
0.0455424
0.028254
0.00987668
-0.00661571
-0.0189331
-0.0264553
-0.0284855
-0.0270313
0.147677
0.177723
0.195113
0.195081
0.177147
0.141908
0.0933538
0.036845
-0.0190193
-0.0680413
-0.104992
-0.126344
-0.130661
-0.118736
-0.0933691
-0.0589045
-0.0205495
0.0163487
0.0470067
0.0678074
0.0767132
0.0734471
0.059395
0.0373127
0.0107925
-0.0155058
-0.0377015
-0.0528299
-0.0601567
-0.0590671
-0.0523544
0.140611
0.166854
0.179572
0.174112
0.150379
0.109358
0.0557633
-0.00425866
-0.0615284
-0.109349
-0.142225
-0.156658
-0.151567
-0.128413
-0.0909199
-0.0445165
0.00446675
0.0496501
0.085435
0.107716
0.114364
0.105423
0.0829802
0.0507844
0.013588
-0.0224682
-0.0524892
-0.0727363
-0.0822862
-0.0805377
-0.0708732
0.10932
0.124982
0.127353
0.112453
0.0808805
0.0341943
-0.0222483
-0.0817394
-0.135266
-0.176125
-0.199047
-0.200994
-0.181572
-0.14311
-0.0903209
-0.0296559
0.0315844
0.0861986
0.127999
0.152594
0.157904
0.144364
0.114742
0.0736904
0.0269799
-0.0180355
-0.0555835
-0.0812412
-0.0939053
-0.0929638
-0.0821454
0.0666589
0.0691728
0.0595516
0.0347582
-0.00387232
-0.0542363
-0.110636
-0.166194
-0.21269
-0.243868
-0.255054
-0.243915
-0.210813
-0.158843
-0.093441
-0.0216898
0.0485988
0.109866
0.155743
0.181848
0.186293
0.169878
0.135865
0.0894847
0.0371172
-0.0132069
-0.0552393
-0.0841785
-0.098844
-0.0986481
-0.0874348
0.0276901
0.0192612
0.000424436
-0.0309573
-0.0730445
-0.123436
-0.17655
-0.225837
-0.264262
-0.286346
-0.288205
-0.268216
-0.227308
-0.16896
-0.098791
-0.0238745
0.0481387
0.10996
0.15555
0.180867
0.184336
0.167002
0.1323
0.0855483
0.0331429
-0.0169168
-0.0584869
-0.0868436
-0.100893
-0.100148
-0.0883897
0.00390771
-0.00979349
-0.0319797
-0.0641713
-0.104434
-0.150442
-0.197223
-0.23904
-0.270174
-0.286099
-0.283727
-0.261972
-0.221973
-0.167061
-0.102388
-0.0343064
0.0304028
0.0853513
0.125318
0.146894
0.148878
0.132399
0.100687
0.058615
0.0119685
-0.0320018
-0.0678568
-0.0914347
-0.101893
-0.0989258
-0.0861246
-0.00138193
-0.0138879
-0.033069
-0.0601395
-0.0934889
-0.131225
-0.169375
-0.203367
-0.228736
-0.241939
-0.240584
-0.223878
-0.192796
-0.150041
-0.0997472
-0.0469722
0.00291455
0.0448905
0.0748918
0.090323
0.0903641
0.076055
0.0501009
0.0164959
-0.0200796
-0.0536804
-0.0800273
-0.095885
-0.100765
-0.0945835
-0.0806544
0.0073551
0.000616699
-0.0111847
-0.0292558
-0.0525778
-0.0799173
-0.108475
-0.134978
-0.156046
-0.169042
-0.172125
-0.164591
-0.146997
-0.121142
-0.0898491
-0.0566129
-0.0251528
0.00105567
0.0192175
0.0275826
0.0256611
0.0142785
-0.00456974
-0.0279934
-0.0526563
-0.0741949
-0.0896795
-0.0969471
-0.0958792
-0.0865993
-0.0720499
0.0198355
0.0198048
0.0161131
0.00750608
-0.00563249
-0.0226827
-0.0420105
-0.061544
-0.0788177
-0.0919795
-0.0996401
-0.101106
-0.0964813
-0.0866628
-0.0732165
-0.0581572
-0.043667
-0.0318004
-0.0242083
-0.0219065
-0.0251403
-0.0333511
-0.04527
-0.0590919
-0.0727726
-0.0834887
-0.0895519
-0.0898212
-0.084415
-0.0735882
-0.0597475
0.0265781
0.0310756
0.0331406
0.0315587
0.0262809
0.0173621
0.00570781
-0.00760775
-0.020907
-0.0329892
-0.0428561
-0.0498677
-0.0538122
-0.0549239
-0.053822
-0.051401
-0.0486783
-0.0466359
-0.0460704
-0.0474656
-0.0509178
-0.0561156
-0.0623901
-0.0688072
-0.0743387
-0.0774241
-0.0773335
-0.0735515
-0.0663904
-0.0561279
-0.044578
0.0239743
0.0294132
0.0335192
0.0352146
0.034326
0.0306401
0.024509
0.0164614
0.0074661
-0.00179116
-0.0106727
-0.0186824
-0.025509
-0.0310491
-0.0353894
-0.0387641
-0.0414901
-0.0438985
-0.0462693
-0.0487725
-0.0514336
-0.0541212
-0.0565683
-0.0584108
-0.0592672
-0.058467
-0.0557708
-0.0510337
-0.0446281
-0.0367941
-0.0287279
0.0801783
0.102731
0.122444
0.137236
0.146419
0.149534
0.146977
0.139657
0.12993
0.11919
0.108676
0.0992783
0.0914459
0.0851453
0.079908
0.0749427
0.0693128
0.0621139
0.052645
0.0405614
0.0259602
0.00939679
-0.00816871
-0.02548
-0.0411553
-0.0532221
-0.0607391
-0.0632566
-0.0608063
-0.0538505
-0.0436562
0.0805405
0.102753
0.121365
0.13481
0.14239
0.144047
0.140492
0.13261
0.123169
0.113729
0.105574
0.099514
0.0957878
0.0940463
0.0934367
0.0927536
0.0906698
0.0859597
0.0777079
0.0654889
0.0494531
0.0303313
0.00936139
-0.0118581
-0.0315752
-0.047302
-0.0580173
-0.0631487
-0.0624273
-0.056371
-0.0461737
0.0383918
0.0479752
0.0550049
0.0591582
0.0603599
0.0592834
0.0564885
0.0529449
0.0504834
0.0500911
0.0523752
0.0574562
0.064931
0.0739222
0.0831911
0.0913076
0.0968656
0.0986814
0.0959616
0.0884319
0.0763785
0.0606087
0.0423645
0.0231695
0.00464973
-0.0110792
-0.0230154
-0.0308218
-0.0339391
-0.0327459
-0.0278716
-0.0423922
-0.0556898
-0.0685992
-0.0795495
-0.0874645
-0.0912711
-0.0901154
-0.0836143
-0.0721932
-0.0562582
-0.0366223
-0.0144359
0.00891542
0.0319467
0.0532168
0.0714696
0.085747
0.0954683
0.100462
0.100949
0.0974808
0.0908301
0.0818962
0.0715947
0.0607793
0.0501815
0.0401814
0.0309831
0.0230585
0.0163893
0.0113257
-0.13686
-0.176159
-0.210846
-0.237144
-0.252842
-0.256415
-0.247298
-0.226205
-0.19663
-0.160974
-0.12195
-0.0822749
-0.0443728
-0.0101524
0.0191475
0.0430147
0.061594
0.075559
0.0859195
0.0937822
0.100124
0.105603
0.110459
0.114493
0.117161
0.11697
0.113141
0.105251
0.0935854
0.078473
0.0616175
-0.211801
-0.270392
-0.319944
-0.354982
-0.372583
-0.371133
-0.350807
-0.313823
-0.266736
-0.214049
-0.160357
-0.109765
-0.065439
-0.0292803
-0.00180554
0.0177842
0.0313066
0.0412127
0.0501224
0.0603255
0.0733697
0.0897808
0.108974
0.129341
0.148571
0.162544
0.168898
0.166216
0.154344
0.133782
0.107473
-0.244567
-0.309314
-0.361643
-0.395194
-0.40704
-0.395901
-0.363106
-0.312526
-0.253019
-0.190828
-0.13195
-0.081358
-0.0424061
-0.0164665
-0.00285948
0.000924007
-0.00130139
-0.00506088
-0.00594954
-0.000379578
0.0138327
0.0371038
0.068015
0.10352
0.139469
0.169242
0.188689
0.195124
0.18776
0.166988
0.136598
-0.227769
-0.2842
-0.32659
-0.348748
-0.348457
-0.325111
-0.281371
-0.222542
-0.158541
-0.096604
-0.0433683
-0.00395929
0.0186586
0.0240552
0.0143273
-0.00626185
-0.0319853
-0.0565055
-0.0738105
-0.0791478
-0.0697421
-0.0452209
-0.00765768
0.0387307
0.0882738
0.132488
0.165584
0.183552
0.184904
0.169636
0.141803
-0.174125
-0.212336
-0.236776
-0.242244
-0.22764
-0.193162
-0.142599
-0.082163
-0.0215236
0.0319389
0.0717412
0.093224
0.0941941
0.075269
0.0398009
-0.00657816
-0.0567532
-0.103093
-0.138496
-0.157416
-0.156647
-0.135784
-0.0972418
-0.0459049
0.0116514
0.0660541
0.110353
0.139467
0.1513
0.145294
0.125208
-0.107945
-0.125848
-0.131743
-0.121747
-0.0958439
-0.0548719
-0.00320939
0.0527824
0.104663
0.145657
0.170019
0.173899
0.155918
0.11747
0.062608
-0.00243353
-0.0700287
-0.132126
-0.181294
-0.211728
-0.22004
-0.205717
-0.171137
-0.121219
-0.0626536
-0.00463083
0.0454904
0.0820726
0.102677
0.106222
0.095791
-0.0546265
-0.057865
-0.0516093
-0.0331247
-0.00302856
0.037593
0.0845305
0.132062
0.173449
0.202994
0.215961
0.209309
0.182187
0.136194
0.0752767
0.00530894
-0.0665951
-0.13294
-0.186784
-0.222647
-0.237236
-0.229875
-0.202546
-0.159585
-0.107004
-0.0528909
-0.00415852
0.0336898
0.0582172
0.0680437
0.0654401
-0.0301223
-0.0288305
-0.0205837
-0.00329712
0.0224413
0.0557803
0.0934217
0.130918
0.163228
0.185905
0.195194
0.188613
0.165373
0.12661
0.0753489
0.0162052
-0.0451288
-0.102554
-0.150317
-0.183755
-0.199913
-0.197939
-0.179153
-0.146842
-0.105734
-0.062208
-0.021982
0.0102508
0.0323912
0.0430829
0.0438791
-0.0352266
-0.0392156
-0.038375
-0.0307601
-0.0163401
0.00466776
0.0303923
0.058021
0.0839362
0.104898
0.117951
0.120869
0.112497
0.0929977
0.0638993
0.0279663
-0.0111066
-0.0491387
-0.0819937
-0.106138
-0.119129
-0.119967
-0.109203
-0.0888483
-0.0620358
-0.0332234
-0.006457
0.0148653
0.0292046
0.0355322
0.0348878
-0.0567654
-0.0712761
-0.082652
-0.0888528
-0.088947
-0.0823416
-0.0693168
-0.0509845
-0.0298001
-0.00791084
0.0123835
0.0289421
0.0400741
0.0447884
0.04295
0.0353194
0.023451
0.00947853
-0.00419503
-0.0152703
-0.0219116
-0.0230432
-0.0185045
-0.0090679
0.00371818
0.0171944
0.0291057
0.0375327
0.0415523
0.0406403
0.0355053
-0.0744277
-0.0981366
-0.12031
-0.138992
-0.152473
-0.159441
-0.158761
-0.149996
-0.134471
-0.113277
-0.0880274
-0.0606839
-0.0333172
-0.00786015
0.0141352
0.0316812
0.0444333
0.0526785
0.0572237
0.0591912
0.0597814
0.0600337
0.0606381
0.0618289
0.0633856
0.0641372
0.0634196
0.0606758
0.0554964
0.047865
0.0382172
-0.0700872
-0.0960142
-0.12238
-0.147847
-0.170375
-0.188234
-0.199253
-0.201683
-0.195444
-0.180454
-0.157408
-0.127741
-0.093477
-0.0570035
-0.0207799
0.0129511
0.0423902
0.0663407
0.0842683
0.0962494
0.10285
0.104951
0.103544
0.0995672
0.093776
0.0861716
0.0773143
0.0677001
0.0572444
0.0462973
0.0349217
-0.035586
-0.0543286
-0.0762011
-0.101146
-0.127357
-0.153049
-0.175411
-0.191564
-0.199543
-0.197852
-0.185899
-0.164141
-0.134039
-0.0978938
-0.0585421
-0.0189977
0.0179022
0.0498029
0.0750503
0.0927869
0.102949
0.106162
0.103548
0.09651
0.0865076
0.0745483
0.0620779
0.0503152
0.039319
0.0296046
0.0206469
0.0240116
0.0201708
0.00976659
-0.00891276
-0.0347354
-0.0661311
-0.099879
-0.132028
-0.158251
-0.175372
-0.181181
-0.174789
-0.156718
-0.128822
-0.093997
-0.0557686
-0.0178105
0.0165057
0.0444901
0.0643896
0.0755108
0.0781978
0.0736528
0.0636883
0.050395
0.0358493
0.0222337
0.011292
0.00313484
-0.00172548
-0.00464314
0.0926975
0.106506
0.109918
0.0993569
0.0751542
0.0386011
-0.00666633
-0.0555588
-0.101145
-0.138423
-0.163435
-0.173831
-0.169125
-0.1507
-0.121536
-0.085726
-0.0478595
-0.0124076
0.016838
0.0371965
0.0473588
0.0474493
0.0388609
0.0239594
0.00562875
-0.0127226
-0.02808
-0.0381647
-0.0427882
-0.0415157
-0.0366993
0.150102
0.178155
0.192176
0.187095
0.162677
0.120095
0.0636014
-0.000466647
-0.0627339
-0.11646
-0.156095
-0.178056
-0.181126
-0.166534
-0.137666
-0.0994986
-0.0578172
-0.0184093
0.0136928
0.0348369
0.0431535
0.0386961
0.0232757
9.5007e-05
-0.0268571
-0.0524967
-0.0727116
-0.0845091
-0.0875114
-0.0813387
-0.0693719
0.179573
0.213617
0.230843
0.22541
0.197003
0.14698
0.0804734
0.00509572
-0.0679207
-0.13045
-0.175802
-0.19967
-0.200629
-0.180259
-0.14281
-0.0945202
-0.0426536
0.00550116
0.0435952
0.0670318
0.073501
0.0631829
0.0385593
0.00395498
-0.035239
-0.0720161
-0.100902
-0.117976
-0.122545
-0.114212
-0.0972652
0.174474
0.204604
0.216457
0.204259
0.168152
0.10998
0.0358943
-0.0453737
-0.121633
-0.18395
-0.225133
-0.240781
-0.229834
-0.194694
-0.140815
-0.0758955
-0.00875417
0.0518539
0.0983788
0.125445
0.130492
0.114009
0.0793099
0.0319716
-0.0211127
-0.0710324
-0.110883
-0.135724
-0.144489
-0.13671
-0.117338
0.140336
0.158749
0.158926
0.13584
0.0904512
0.025238
-0.0527484
-0.134051
-0.206525
-0.26111
-0.290777
-0.291598
-0.263285
-0.209274
-0.136242
-0.0531842
0.0298134
0.102893
0.157679
0.188344
0.192306
0.170473
0.126968
0.0684759
0.00316748
-0.0585271
-0.108528
-0.141032
-0.154658
-0.148864
-0.128972
0.0920674
0.0958508
0.0827727
0.0488946
-0.00396552
-0.0727852
-0.150035
-0.226135
-0.289864
-0.332691
-0.348286
-0.333534
-0.289021
-0.219066
-0.131177
-0.0350811
0.0585438
0.139418
0.198946
0.231297
0.234097
0.208665
0.159688
0.094518
0.0220436
-0.0465268
-0.102524
-0.139704
-0.156538
-0.152481
-0.132929
0.0475722
0.0394227
0.0167108
-0.0234535
-0.0786928
-0.145762
-0.217288
-0.284276
-0.337024
-0.36803
-0.371977
-0.346623
-0.293216
-0.216468
-0.124003
-0.0254119
0.0689516
0.149256
0.2074
0.238028
0.239162
0.212395
0.162564
0.0970389
0.0246285
-0.0436404
-0.0993014
-0.13627
-0.153097
-0.149335
-0.130207
0.0207072
0.00740506
-0.0177349
-0.0568824
-0.107611
-0.166901
-0.228224
-0.283817
-0.325749
-0.347837
-0.345847
-0.318241
-0.266501
-0.195072
-0.110863
-0.0224015
0.0612189
0.131454
0.181358
0.206447
0.20524
0.179403
0.13343
0.0740151
0.00905806
-0.0515616
-0.100372
-0.13206
-0.145473
-0.140348
-0.121545
0.0153519
0.00446853
-0.0155487
-0.0465224
-0.08649
-0.133064
-0.181099
-0.224508
-0.257106
-0.274103
-0.272255
-0.250455
-0.20997
-0.154391
-0.089222
-0.021204
0.0425196
0.0952881
0.131745
0.148518
0.144629
0.121592
0.0831511
0.0347561
-0.0172378
-0.0648358
-0.102143
-0.125067
-0.132875
-0.125524
-0.107383
0.0261106
0.02285
0.0128989
-0.00555132
-0.0313218
-0.0629002
-0.0967489
-0.128596
-0.153799
-0.16886
-0.171347
-0.160328
-0.136554
-0.102423
-0.0616887
-0.0189855
0.0207722
0.0530156
0.0741015
0.081792
0.0755374
0.0565387
0.0275493
-0.00750149
-0.0441011
-0.0764811
-0.100556
-0.113617
-0.11537
-0.105966
-0.0891504
0.0400775
0.045035
0.0453403
0.0391994
0.026972
0.00939978
-0.0115607
-0.0332726
-0.0523926
-0.0665311
-0.0739098
-0.0736661
-0.0659843
-0.0520884
-0.03407
-0.014597
0.00346455
0.0174398
0.025207
0.0254962
0.0180643
0.00372943
-0.0157552
-0.0379395
-0.0600618
-0.0784805
-0.0907734
-0.0955134
-0.092706
-0.0826162
-0.0681896
0.0455381
0.0554064
0.0623094
0.0645651
0.0620105
0.0546721
0.0435663
0.0300054
0.0162321
0.0037512
-0.00620043
-0.0128523
-0.0159902
-0.0159722
-0.0136469
-0.0102058
-0.00698082
-0.00523654
-0.00597775
-0.00978827
-0.0167371
-0.0263597
-0.0377252
-0.049562
-0.0604755
-0.0685215
-0.0725613
-0.0719863
-0.0670284
-0.0579458
-0.0468859
0.038658
0.0485403
0.0568481
0.0621597
0.0641665
0.0625442
0.0576423