# vtk DataFile Version 2.0
Func
ASCII
DATASET RECTILINEAR_GRID
DIMENSIONS 31 31 31
X_COORDINATES 31 double
-9.67742
-9.03226
-8.3871
-7.74194
-7.09677
-6.45161
-5.80645
-5.16129
-4.51613
-3.87097
-3.22581
-2.58065
-1.93548
-1.29032
-0.645161
0
0.645161
1.29032
1.93548
2.58065
3.22581
3.87097
4.51613
5.16129
5.80645
6.45161
7.09677
7.74194
8.3871
9.03226
9.67742
Y_COORDINATES 31 double
-9.67742
-9.03226
-8.3871
-7.74194
-7.09677
-6.45161
-5.80645
-5.16129
-4.51613
-3.87097
-3.22581
-2.58065
-1.93548
-1.29032
-0.645161
0
0.645161
1.29032
1.93548
2.58065
3.22581
3.87097
4.51613
5.16129
5.80645
6.45161
7.09677
7.74194
8.3871
9.03226
9.67742
Z_COORDINATES 31 double
-9.67742
-9.03226
-8.3871
-7.74194
-7.09677
-6.45161
-5.80645
-5.16129
-4.51613
-3.87097
-3.22581
-2.58065
-1.93548
-1.29032
-0.645161
0
0.645161
1.29032
1.93548
2.58065
3.22581
3.87097
4.51613
5.16129
5.80645
6.45161
7.09677
7.74194
8.3871
9.03226
9.67742
POINT_DATA 29791
SCALARS data double 1
LOOKUP_TABLE default
0.0543939
0.0676761
0.0783214
0.0842928
0.0853885
0.081249
0.0729181
0.0618576
0.0503351
0.0399771
0.0321889
0.0279272
0.027583
0.0309211
0.0371306
0.0449532
0.0528762
0.0593498
0.0630074
0.0628645
0.0584626
0.0499399
0.0379997
0.0238179
0.00885198
-0.00501756
-0.0162864
-0.0237906
-0.0274116
-0.0270136
-0.0238347
0.0757947
0.0936196
0.106711
0.112672
0.111116
0.101786
0.0863566
0.0670296
0.0473816
0.0299919
0.0170743
0.0101405
0.00981097
0.0157235
0.0266098
0.0404882
0.0549648
0.0675688
0.0760969
0.0789252
0.0752338
0.0651216
0.0495667
0.0302846
0.00945268
-0.0100535
-0.0260255
-0.0366747
-0.0416933
-0.0409471
-0.035835
0.0834574
0.101698
0.113509
0.116336
0.109809
0.0939835
0.0708656
0.0434307
0.0161767
-0.00756045
-0.0249325
-0.0339905
-0.0339328
-0.025215
-0.00946264
0.010773
0.0323916
0.0521695
0.0671958
0.0752715
0.0751994
0.0669337
0.0515439
0.0310427
0.0080577
-0.0139007
-0.0320612
-0.0443045
-0.0500597
-0.0490862
-0.0428436
0.0723365
0.0860117
0.0923877
0.089143
0.0761233
0.0536198
0.0240524
-0.00924005
-0.0414784
-0.0689844
-0.0886338
-0.0982968
-0.0971046
-0.0855691
-0.0654903
-0.0396959
-0.0116383
0.0150651
0.037105
0.051914
0.0579875
0.0550537
0.0440492
0.0269477
0.00642098
-0.0139233
-0.0311766
-0.0430182
-0.048728
-0.0479022
-0.0418596
0.044734
0.0496145
0.0474728
0.0366037
0.0171632
-0.0101848
-0.0429801
-0.077944
-0.110735
-0.137868
-0.156408
-0.164382
-0.16102
-0.146864
-0.123685
-0.0942385
-0.0618926
-0.0301996
-0.00245148
0.0187288
0.031693
0.0359377
0.0320952
0.0217894
0.00733333
-0.00810892
-0.0218808
-0.0318025
-0.0370388
-0.0370333
-0.0328377
0.00817308
0.00257121
-0.00869588
-0.0264876
-0.0502884
-0.0790824
-0.110652
-0.142201
-0.170437
-0.192553
-0.206243
-0.210011
-0.203362
-0.186882
-0.162162
-0.131601
-0.0981075
-0.0647544
-0.0344153
-0.00943474
0.00862405
0.0191245
0.0223618
0.0194585
0.0121287
0.00273724
-0.00659129
-0.0140447
-0.0187732
-0.0201089
-0.0188156
-0.0296025
-0.04492
-0.0638151
-0.086094
-0.110917
-0.136989
-0.162589
-0.185751
-0.204639
-0.217508
-0.223016
-0.22041
-0.209632
-0.191348
-0.166887
-0.138101
-0.107171
-0.0763667
-0.0478108
-0.023259
-0.00393194
0.00958378
0.0173439
0.0199837
0.0185609
0.0145131
0.00929544
0.0042089
-5.96618e-06
-0.00267102
-0.0042592
-0.0613689
-0.0838298
-0.107407
-0.130878
-0.153165
-0.172811
-0.188747
-0.200021
-0.206391
-0.207354
-0.202706
-0.192577
-0.177448
-0.158116
-0.135645
-0.111283
-0.0863632
-0.0621966
-0.0399589
-0.0205992
-0.00477007
0.00721099
0.0153582
0.0199835
0.0216104
0.0208721
0.0185721
0.0154652
0.0120467
0.00887167
0.00560343
-0.0836107
-0.110073
-0.13528
-0.157121
-0.174395
-0.185591
-0.190318
-0.188645
-0.181798
-0.170487
-0.155622
-0.138221
-0.119321
-0.099893
-0.0807885
-0.0627018
-0.0461616
-0.0315254
-0.0189902
-0.00861498
-0.000347531
0.00594837
0.0104635
0.0134199
0.0150314
0.015418
0.0148558
0.0136063
0.0117985
0.00972459
0.00698454
-0.0959123
-0.123733
-0.148447
-0.167303
-0.17906
-0.182232
-0.176996
-0.164246
-0.146327
-0.124922
-0.10185
-0.0788633
-0.0574852
-0.0388745
-0.0237614
-0.0124388
-0.00480946
-0.000456707
0.0012582
0.00108604
-0.00021471
-0.00196449
-0.00362757
-0.00484484
-0.00545496
-0.00548302
-0.00498329
-0.00407181
-0.00305418
-0.00200393
-0.00158561
-0.100235
-0.127913
-0.151464
-0.16779
-0.175657
-0.173631
-0.162221
-0.142802
-0.118346
-0.0911102
-0.0634675
-0.0376346
-0.0154689
0.00170457
0.01317
0.0188252
0.0191125
0.0149149
0.00741455
-0.0020618
-0.0121948
-0.021801
-0.0299346
-0.0359438
-0.0395029
-0.0404391
-0.038921
-0.0352819
-0.0302557
-0.024309
-0.0185162
-0.0991849
-0.126334
-0.14929
-0.164913
-0.171986
-0.169108
-0.156825
-0.136568
-0.111389
-0.0836467
-0.0558356
-0.0303013
-0.00902875
0.00654523
0.0156231
0.0180668
0.0143412
0.00541947
-0.007354
-0.0224184
-0.0381581
-0.0530489
-0.0657881
-0.0753812
-0.081207
-0.0826536
-0.0798074
-0.0730447
-0.063433
-0.0517682
-0.0395828
-0.0943723
-0.1211
-0.144451
-0.161544
-0.171164
-0.171916
-0.164095
-0.148767
-0.128556
-0.10546
-0.0816656
-0.0593049
-0.0402677
-0.0260238
-0.0175189
-0.0151259
-0.0186596
-0.0274264
-0.0403146
-0.0559073
-0.072617
-0.0888227
-0.103013
-0.113901
-0.120533
-0.121756
-0.11742
-0.107777
-0.0940601
-0.0772485
-0.0592763
-0.0856561
-0.111728
-0.135899
-0.155824
-0.170291
-0.177908
-0.178496
-0.172438
-0.161512
-0.146984
-0.130376
-0.113314
-0.0973881
-0.0840087
-0.0742946
-0.0689886
-0.0684135
-0.0724494
-0.0805487
-0.0917742
-0.104877
-0.118402
-0.13082
-0.140667
-0.146697
-0.147246
-0.141822
-0.13042
-0.114228
-0.0942186
-0.0725801
-0.0715236
-0.0957506
-0.119918
-0.142453
-0.162186
-0.177777
-0.188468
-0.193777
-0.194358
-0.190507
-0.182848
-0.172291
-0.159967
-0.147134
-0.135063
-0.124919
-0.11765
-0.113883
-0.113846
-0.117311
-0.1236
-0.131636
-0.140057
-0.147356
-0.152076
-0.15216
-0.14673
-0.135427
-0.119197
-0.0988185
-0.0765394
-0.0504101
-0.0706075
-0.0926542
-0.115937
-0.139415
-0.161895
-0.182055
-0.198525
-0.210702
-0.217826
-0.219518
-0.215867
-0.207444
-0.195268
-0.180703
-0.165304
-0.150648
-0.138145
-0.128861
-0.123374
-0.121691
-0.123242
-0.126954
-0.131397
-0.134994
-0.135451
-0.131507
-0.12241
-0.10872
-0.0908849
-0.0710132
-0.0222455
-0.0358126
-0.0529756
-0.0741919
-0.0986606
-0.125453
-0.152794
-0.17853
-0.200804
-0.217842
-0.228284
-0.231386
-0.227121
-0.216202
-0.2
-0.180369
-0.159418
-0.139254
-0.121718
-0.108158
-0.0992644
-0.0949986
-0.0946392
-0.0969023
-0.100175
-0.102074
-0.101006
-0.0958368
-0.0866769
-0.0735872
-0.058374
0.0105882
0.0057045
-0.00421891
-0.0207227
-0.0433394
-0.0715093
-0.103156
-0.135525
-0.16562
-0.190797
-0.208828
-0.2182
-0.218305
-0.209517
-0.193124
-0.171151
-0.146087
-0.120575
-0.0970791
-0.0775861
-0.0633765
-0.0548981
-0.0517733
-0.0529023
-0.0566977
-0.0608027
-0.0633756
-0.0629622
-0.0592365
-0.0518929
-0.0423342
0.0434517
0.0478565
0.0461428
0.0357852
0.0168783
-0.0104316
-0.043914
-0.0804177
-0.116011
-0.147381
-0.171595
-0.186505
-0.190985
-0.185064
-0.169883
-0.147512
-0.120656
-0.0923018
-0.0653484
-0.0422501
-0.0247408
-0.0136648
-0.00894908
-0.00968863
-0.014371
-0.020747
-0.02683
-0.0309401
-0.032384
-0.0305621
-0.0264363
0.0708197
0.0832737
0.0889102
0.0844222
0.0695681
0.0441162
0.010339
-0.0283952
-0.0674943
-0.103188
-0.13205
-0.151454
-0.159863
-0.157
-0.143823
-0.12235
-0.0953548
-0.065999
-0.0374303
-0.0124014
0.00703957
0.0197487
0.0255407
0.0251237
0.0198906
0.0119255
0.00325157
-0.00433217
-0.00985533
-0.0125134
-0.0128395
0.0882754
0.106028
0.116646
0.116317
0.104567
0.0808904
0.0475337
0.0079348
-0.0329612
-0.0711476
-0.102918
-0.125356
-0.136647
-0.136278
-0.125026
-0.104799
-0.0783325
-0.04882
-0.0195081
0.00669676
0.0275525
0.0416984
0.0487307
0.0491562
0.0442058
0.0357483
0.0257469
0.0160194
0.00773222
0.00182166
-0.00185739
0.0942221
0.113969
0.126649
0.128248
0.118193
0.0958434
0.0633723
0.0241646
-0.0167943
-0.0554756
-0.088111
-0.111687
-0.124262
-0.125179
-0.115065
-0.0956888
-0.0696705
-0.0401298
-0.0102893
0.0169098
0.0391315
0.0548673
0.0635284
0.065416
0.0615629
0.053571
0.0432697
0.0324172
0.0223176
0.0139964
0.00765018
0.0905202
0.10958
0.122038
0.123939
0.114736
0.0937671
0.0630849
0.0258995
-0.0130492
-0.0499153
-0.0810783
-0.103616
-0.115612
-0.116359
-0.106376
-0.0872735
-0.0614986
-0.0320037
-0.00187954
0.0260063
0.0493176
0.0664675
0.0767199
0.0801779
0.0776545
0.0704349
0.060169
0.0485032
0.0368421
0.0262831
0.0173255
0.0816507
0.0988446
0.110274
0.112247
0.104298
0.0858087
0.0586333
0.0256755
-0.00880073
-0.0413213
-0.0686026
-0.0879828
-0.0976996
-0.0970814
-0.086566
-0.0675896
-0.0423609
-0.0135729
0.015926
0.0434543
0.0667781
0.0843145
0.0952366
0.0994777
0.097633
0.0906334
0.0799301
0.0670313
0.0534092
0.0402228
0.028242
0.0727562
0.0885786
0.0997876
0.103059
0.0980018
0.0840322
0.0627093
0.0364898
0.00900747
-0.0167925
-0.0381154
-0.0526899
-0.0590058
-0.0564817
-0.0454851
-0.027244
-0.00366052
0.0229301
0.0500363
0.075282
0.096649
0.112656
0.122464
0.125886
0.123327
0.115354
0.103219
0.0882798
0.0720329
0.0556766
0.0402193
0.0675379
0.0835856
0.0963646
0.102947
0.102951
0.0957726
0.0825781
0.0652577
0.0467434
0.0293469
0.0152773
0.00633791
0.00373357
0.00793329
0.0186488
0.0349001
0.055159
0.0775373
0.100004
0.120598
0.137627
0.149812
0.156383
0.157105
0.152236
0.142002
0.127462
0.109821
0.0905404
0.0708145
0.0518422
0.0662176
0.0839397
0.099743
0.111097
0.117564
0.118462
0.114507
0.106968
0.0980766
0.0894797
0.082775
0.079279
0.0798835
0.0849483
0.0942801
0.107175
0.12252
0.138928
0.154892
0.16894
0.17978
0.186415
0.188219
0.184969
0.176827
0.16374
0.146584
0.1264
0.104542
0.0821364
0.0605033
0.0664312
0.086174
0.105201
0.121342
0.134072
0.142609
0.147242
0.148639
0.148397
0.147546
0.147116
0.147978
0.15074
0.155674
0.162689
0.17136
0.180985
0.190674
0.199446
0.206328
0.210447
0.211117
0.207896
0.200612
0.18937
0.17392
0.154962
0.133358
0.110287
0.086744
0.0640733
0.0633357
0.0835378
0.103871
0.122573
0.139053
0.152538
0.162935
0.170446
0.176134
0.180528
0.184199
0.187653
0.191273
0.195258
0.199614
0.204151
0.208522
0.212261
0.214842
0.215722
0.214404
0.210483
0.203693
0.193923
0.181241
0.165292
0.146595
0.125859
0.103991
0.0818045
0.0604703
0.0535307
0.0714532
0.0899593
0.107698
0.124134
0.138495
0.150613
0.160372
0.168401
0.174887
0.180082
0.184235
0.187563
0.190211
0.192245
0.193642
0.194303
0.194069
0.192735
0.190078
0.185873
0.179926
0.1721
0.162333
0.150656
0.136716
0.12088
0.103565
0.0854764
0.0671924
0.0496372
0.0379882
0.0510882
0.0648926
0.0784329
0.091337
0.102969
0.113132
0.121668
0.128862
0.134723
0.139317
0.142738
0.145093
0.146483
0.146992
0.146679
0.145578
0.143695
0.14101
0.137478
0.133036
0.127614
0.121152
0.113611
0.104992
0.0950313
0.0838961
0.0717937
0.0592269
0.0465512
0.0343987
0.0805803
0.0995999
0.113976
0.120933
0.12012
0.111245
0.0960113
0.0767242
0.0570856
0.0397453
0.026971
0.0202933
0.0203126
0.0266077
0.037819
0.0518561
0.0662139
0.0783274
0.0859306
0.087383
0.0819024
0.0696787
0.0518266
0.0302314
0.00724815
-0.0140214
-0.0312121
-0.0424768
-0.047524
-0.04621
-0.0402724
0.111317
0.136568
0.153981
0.160164
0.154577
0.137252
0.110822
0.0786294
0.0464257
0.0183165
-0.00220082
-0.0127595
-0.0124252
-0.00182942
0.016951
0.0407009
0.0655486
0.087504
0.103007
0.109427
0.105422
0.091115
0.0680368
0.0388986
0.00715856
-0.0225096
-0.0467287
-0.0627343
-0.0698502
-0.0679015
-0.0589259
0.122312
0.147935
0.163215
0.164475
0.151227
0.124036
0.0860085
0.0416395
-0.0019157
-0.0394134
-0.0664052
-0.0798764
-0.0786329
-0.0634638
-0.0370013
-0.0033381
0.0325723
0.0655894
0.091075
0.105526
0.107028
0.09549
0.0725861
0.0414861
0.00633951
-0.0271941
-0.0548905
-0.0735144
-0.0819335
-0.0798072
-0.0692911
0.106435
0.125444
0.132933
0.125513
0.102999
0.0662493
0.0190105
-0.0336652
-0.0842209
-0.126915
-0.1569
-0.170902
-0.167642
-0.148002
-0.114888
-0.0728115
-0.0272573
0.0160449
0.0518633
0.07615
0.0865396
0.0826126
0.0658586
0.0394024
0.00747174
-0.0241274
-0.0509495
-0.0694228
-0.0782047
-0.0767086
-0.0668949
0.0664452
0.0728749
0.0683364
0.0503156
0.0190849
-0.0240539
-0.075293
-0.129639
-0.180254
-0.221718
-0.249497
-0.260575
-0.253829
-0.230193
-0.192521
-0.145202
-0.093573
-0.0432406
0.000617696
0.0338958
0.0540354
0.0602876
0.0536971
0.03687
0.013498
-0.0113144
-0.0334716
-0.0495874
-0.0581839
-0.0584413
-0.0518688
0.013326
0.00482029
-0.0124927
-0.0398937
-0.0765821
-0.12089
-0.169366
-0.217692
-0.260686
-0.293987
-0.314028
-0.31853
-0.306789
-0.279797
-0.240121
-0.191587
-0.138808
-0.0866297
-0.0395648
-0.00126837
0.025855
0.0408746
0.0443377
0.0380972
0.0249396
0.00871084
-0.00725671
-0.0200976
-0.0283807
-0.0311216
-0.0293181
-0.0418842
-0.0642979
-0.092226
-0.125453
-0.162692
-0.202026
-0.240747
-0.275727
-0.30407
-0.323043
-0.330557
-0.325459
-0.307695
-0.27836
-0.239598
-0.194371
-0.146144
-0.0985103
-0.0548073
-0.0177693
0.0107372
0.0298672
0.0398047
0.0416546
0.037193
0.0287972
0.0188141
0.0093617
0.0016254
-0.00340133
-0.0062198
-0.088502
-0.121155
-0.15549
-0.189854
-0.222593
-0.251689
-0.275416
-0.292122
-0.301386
-0.302367
-0.294699
-0.278556
-0.254679
-0.224332
-0.189219
-0.151342
-0.112844
-0.0758224
-0.0421504
-0.0133203
0.00967012
0.0263794
0.0369125
0.0418591
0.0421549
0.0388933
0.0334385
0.0270903
0.0205963
0.0147546
0.0093141
-0.121031
-0.159348
-0.195686
-0.227184
-0.251983
-0.268093
-0.274816
-0.271994
-0.261463
-0.244219
-0.22157
-0.195009
-0.166086
-0.13629
-0.106959
-0.0792131
-0.0539349
-0.0317469
-0.0130155
0.00212467
0.0137385
0.0220547
0.0274168
0.0302404
0.0309513
0.0298095
0.0273565
0.0241307
0.0202938
0.0162375
0.0116365
-0.138451
-0.178461
-0.213657
-0.24034
-0.256582
-0.260497
-0.252257
-0.232921
-0.206029
-0.174034
-0.139597
-0.105287
-0.0733544
-0.0455259
-0.0229128
-0.00598614
0.00535569
0.0116888
0.0139264
0.0131612
0.0105146
0.00701232
0.00348457
0.000512492
-0.0016026
-0.0028585
-0.00326553
-0.00289036
-0.0022167
-0.00140982
-0.00119307
-0.143272
-0.182546
-0.215458
-0.237897
-0.247954
-0.243862
-0.22632
-0.197101
-0.160674
-0.120346
-0.0795861
-0.0416323
-0.00919782
0.01578
0.0322534
0.0400766
0.0399037
0.0330366
0.0212203
0.00641609
-0.00942044
-0.0245275
-0.037488
-0.0473161
-0.0535019
-0.0557615
-0.0543468
-0.0496968
-0.0428896
-0.0346833
-0.0264279
-0.139175
-0.176841
-0.208061
-0.228743
-0.237028
-0.231233
-0.212144
-0.181626
-0.144235
-0.103418
-0.0627993
-0.0257815
0.00476508
0.0267702
0.0390976
0.0415779
0.0349238
0.0205904
0.000575311
-0.0228073
-0.0471646
-0.070239
-0.0900987
-0.105267
-0.114815
-0.117797
-0.11441
-0.1052
-0.0916709
-0.0750708
-0.0574457
-0.128679
-0.164617
-0.195377
-0.217287
-0.228545
-0.227505
-0.21461
-0.191206
-0.161155
-0.127351
-0.0929333
-0.0609614
-0.0341343
-0.0145438
-0.00352315
-0.00157223
-0.0083816
-0.0229032
-0.0434822
-0.0680183
-0.0941642
-0.119525
-0.141865
-0.15928
-0.17035
-0.173308
-0.168046
-0.154956
-0.135708
-0.111818
-0.0859278
-0.112019
-0.145742
-0.17657
-0.201611
-0.219145
-0.227545
-0.226584
-0.216622
-0.2002
-0.179098
-0.155449
-0.131531
-0.109576
-0.0915652
-0.0790745
-0.0731443
-0.0742153
-0.0820921
-0.0959597
-0.114434
-0.135673
-0.157529
-0.177742
-0.19414
-0.204865
-0.207365
-0.201054
-0.185945
-0.163579
-0.135458
-0.104576
-0.0875847
-0.117418
-0.147203
-0.175146
-0.199677
-0.219233
-0.232762
-0.239383
-0.239891
-0.234604
-0.224298
-0.210165
-0.193734
-0.176745
-0.160989
-0.148132
-0.139544
-0.136144
-0.138273
-0.145607
-0.157156
-0.171332
-0.18612
-0.199277
-0.208619
-0.211001
-0.205259
-0.190869
-0.168983
-0.14081
-0.109393
-0.0536876
-0.0767098
-0.102657
-0.131086
-0.160692
-0.190088
-0.217417
-0.240531
-0.258281
-0.269389
-0.27312
-0.269424
-0.258981
-0.243164
-0.223893
-0.203414
-0.184038
-0.16785
-0.15645
-0.150715
-0.150681
-0.155512
-0.163624
-0.172878
-0.180905
-0.184203
-0.18102
-0.170226
-0.152406
-0.128279
-0.10064
-0.0106698
-0.023515
-0.0420443
-0.0673122
-0.0984268
-0.134314
-0.172467
-0.209639
-0.242727
-0.268927
-0.286016
-0.292685
-0.288705
-0.274984
-0.253447
-0.226784
-0.198105
-0.170543
-0.146863
-0.129099
-0.118309
-0.114462
-0.116491
-0.122479
-0.129997
-0.135414
-0.136457
-0.131407
-0.120217
-0.103035
-0.0821852
0.0377795
0.0376053
0.0294134
0.0106394
-0.0183539
-0.0569218
-0.102126
-0.149885
-0.195318
-0.234294
-0.263266
-0.279761
-0.282664
-0.272364
-0.250663
-0.22051
-0.185592
-0.149857
-0.117015
-0.0900708
-0.0709795
-0.0604448
-0.0579226
-0.0617758
-0.0696151
-0.0778561
-0.0838241
-0.0853144
-0.0816819
-0.0725358
-0.0596109
0.0849105
0.0978086
0.100878
0.0901982
0.0655665
0.0271509
-0.0218797
-0.0768954
-0.131549
-0.180667
-0.219625
-0.24497
-0.2548
-0.248983
-0.229101
-0.198182
-0.160254
-0.119807
-0.0812241
-0.0482362
-0.0234995
-0.00832881
-0.00265028
-0.00512664
-0.0134869
-0.0243079
-0.0346732
-0.0420395
-0.0452673
-0.0435294
-0.0379521
0.122844
0.146613
0.159298
0.155937
0.135832
0.0987233
0.0478674
-0.0117984
-0.0728779
-0.12947
-0.176176
-0.208803
-0.224821
-0.223638
-0.206575
-0.176605
-0.13789
-0.0952147
-0.0533745
-0.0165835
0.0120019
0.0305938
0.0388636
0.0378443
0.029624
0.0173869
0.00412907
-0.00743258
-0.0157859
-0.01979
-0.0200138
0.145385
0.175733
0.194319
0.195562
0.17844
0.142389
0.0906832
0.0283776
-0.0365585
-0.0978253
-0.14957
-0.187144
-0.207598
-0.209994
-0.195404
-0.166673
-0.127947
-0.0841085
-0.040148
-0.000551945
0.031198
0.0529653
0.0640804
0.0652717
0.0583879
0.0463099
0.0319733
0.0181206
0.00653021
-0.00144127
-0.0058871
0.150439
0.182369
0.202462
0.20498
0.188786
0.15318
0.101405
0.0384838
-0.0275339
-0.0902744
-0.143766
-0.183202
-0.20545
-0.209375
-0.195862
-0.167593
-0.128596
-0.083697
-0.037902
0.00420652
0.0389745
0.0640262
0.0784099
0.0825541
0.078025
0.0673333
0.0532543
0.038445
0.024872
0.014051
0.0062857
0.14092
0.170424
0.188649
0.190102
0.173715
0.138795
0.088496
0.0276447
-0.0360841
-0.0965609
-0.148022
-0.1858
-0.206815
-0.209896
-0.195809
-0.167055
-0.127458
-0.0816504
-0.0344888
0.00951746
0.046692
0.0745352
0.0918831
0.0988885
0.0968151
0.087737
0.0742129
0.0587447
0.0434281
0.0299105
0.0188335
0.123556
0.148873
0.164089
0.164237
0.148417
0.116017
0.0699879
0.0147655
-0.0427205
-0.0968846
-0.14247
-0.175218
-0.192311
-0.192674
-0.177003
-0.147591
-0.107962
-0.0624062
-0.0154535
0.0286411
0.0663473
0.0951799
0.113861
0.122322
0.121537
0.113092
0.0993091
0.082499
0.0648229
0.0480334
0.0330662
0.106109
0.127993
0.141487
0.142276
0.129626
0.102993
0.0649627
0.019357
-0.0278914
-0.0719952
-0.10845
-0.133612
-0.145084
-0.141971
-0.124916
-0.0959458
-0.0581667
-0.0153646
0.0284443
0.0694573
0.104476
0.131193
0.148341
0.155714
0.154041
0.144406
0.128891
0.109596
0.0886633
0.0679004
0.0484951
0.094308
0.115211
0.129791
0.134375
0.128313
0.111053
0.0846425
0.0520844
0.0181943
-0.0132129
-0.0385439
-0.0548974
-0.0603765
-0.0543018
-0.0372358
-0.0108677
0.022235
0.0589437
0.0959333
0.130037
0.158567
0.179552
0.191873
0.195284
0.190331
0.177627
0.159013
0.136363
0.111697
0.0867937
0.0630297
0.0890016
0.111312
0.129449
0.140314
0.143239
0.137593
0.124761
0.106813
0.0874457
0.0694393
0.0554273
0.047537
0.0471544
0.0547608
0.0699118
0.0913198
0.11704
0.144704
0.171796
0.195908
0.214988
0.227523
0.232644
0.230155
0.220481
0.203839
0.181821
0.156051
0.128317
0.10026
0.0733769
0.087312
0.112039
0.134555
0.152247
0.164371
0.17017
0.170363
0.1661
0.160056
0.154033
0.149769
0.14868
0.151697
0.159146
0.170735
0.185603
0.202444
0.21967
0.235587
0.248575
0.257248
0.260591
0.258031
0.249466
0.235236
0.21527
0.190888
0.163433
0.134382
0.105146
0.0772088
0.0824325
0.107896
0.132611
0.154473
0.172686
0.186498
0.196005
0.201621
0.20515
0.207592
0.209946
0.213048
0.217465
0.223421
0.230776
0.239057
0.247531
0.255293
0.261378
0.264855
0.264933
0.261039
0.252869
0.240406
0.223916
0.203146
0.179116
0.152916
0.125605
0.0982901
0.0722263
0.0697746
0.0926447
0.115673
0.137256
0.156673
0.173108
0.186479
0.196683
0.204815
0.211306
0.216631
0.221214
0.225367
0.229243
0.232828
0.235942
0.238281
0.239451
0.239027
0.236589
0.231781
0.224349
0.214172
0.20128
0.185849
0.167571
0.147184
0.125341
0.102828
0.0804159
0.0590551
0.049981
0.0669589
0.0845028
0.101498
0.117402
0.131477
0.143542
0.153417
0.161622
0.168263
0.173503
0.177514
0.180447
0.182411
0.183457
0.183583
0.182736
0.180831
0.177761
0.173409
0.167673
0.160475
0.151785
0.141628
0.130095
0.11694
0.102528
0.087184
0.0714803
0.0559235
0.0410929
0.100879
0.123645
0.139886
0.146091
0.141888
0.127167
0.104117
0.0760561
0.0479813
0.0235279
0.0057859
-0.00317469
-0.0025707
0.00697803
0.0235604
0.0442618
0.0655989
0.0840063
0.0963305
0.100279
0.0947396
0.0799352
0.0573613
0.0295731
-0.000221238
-0.0277543
-0.0497761
-0.0638927
-0.0696112
-0.0667591
-0.0576024
0.139545
0.169753
0.189242
0.193679
0.182474
0.156024
0.117671
0.0721942
0.0272817
-0.0115004
-0.0394375
-0.0533616
-0.0520614
-0.0364535
-0.00942058
0.0246106
0.0603237
0.092245
0.115488
0.126438
0.123231
0.105997
0.0767851
0.0392473
-0.00193868
-0.040397
-0.0715225
-0.0917755
-0.100085
-0.0962306
-0.0829158
0.154163
0.184825
0.201539
0.1996
0.178455
0.139201
0.0857808
0.0245143
-0.0350707
-0.0859199
-0.122077
-0.139534
-0.13675
-0.114863
-0.0775018
-0.0302596
0.0201135
0.0666232
0.102962
0.124367
0.12823
0.114407
0.0851491
0.0447275
-0.00125677
-0.0451144
-0.0810904
-0.105063
-0.115328
-0.111467
-0.0963413
0.135391
0.158143
0.165533
0.153139
0.120802
0.0699573
0.00537748
-0.0659314
-0.133923
-0.190917
-0.230457
-0.248214
-0.242545
-0.21472
-0.16872
-0.11068
-0.0480329
0.0114744
0.060779
0.0944262
0.10924
0.104668
0.0827369
0.0476745
0.00519567
-0.0368267
-0.072333
-0.0967345
-0.108067
-0.105577
-0.0918945
0.0865458
0.0942228
0.0873824
0.0626765
0.0205099
-0.0372181
-0.105621
-0.177866
-0.24486
-0.299383
-0.335422
-0.348999
-0.338686
-0.305809
-0.254261
-0.189988
-0.120187
-0.0523999
0.00642467
0.0507969
0.0773223
0.085045
0.0754263
0.0520242
0.0198537
-0.0141619
-0.0444237
-0.0665443
-0.0784137
-0.0789626
-0.0701861
0.0210422
0.0107905
-0.011067
-0.0463287
-0.0939386
-0.151671
-0.21504
-0.278212
-0.334271
-0.377417
-0.402925
-0.407788
-0.39112
-0.354298
-0.300808
-0.235809
-0.1655
-0.0963737
-0.0344564
0.0153952
0.0500201
0.0682457
0.0708909
0.0605254
0.0409709
0.0174549
-0.00544322
-0.023961
-0.0361017
-0.0405669
-0.0386194
-0.0475153
-0.0745145
-0.108747
-0.150135
-0.19703
-0.247043
-0.296574
-0.341464
-0.377792
-0.401911
-0.411034
-0.403622
-0.379611
-0.340477
-0.289093
-0.229432
-0.166129
-0.103976
-0.0474115
-5.03796e-05
0.0356711
0.0586973
0.0693603
0.0692266
0.0607651
0.0472158
0.031826
0.0174247
0.00562972
-0.00223527
-0.00673939
-0.105482
-0.144754
-0.186244
-0.228073
-0.268159
-0.304129
-0.333576
-0.35436
-0.365782
-0.36667
-0.356471
-0.335353
-0.304241
-0.264778
-0.219201
-0.170161
-0.120504
-0.0730178
-0.030186
0.00602057
0.0343027
0.0541166
0.0656584
0.0697779
0.0677955
0.0612024
0.0519086
0.0416885
0.0315419
0.0225457
0.0144882
-0.145506
-0.191351
-0.234683
-0.272127
-0.301375
-0.320218
-0.32751
-0.323116
-0.309256
-0.28713
-0.258332
-0.224697
-0.18815
-0.150557
-0.113611
-0.0787503
-0.0471195
-0.0195406
0.00349135
0.0217816
0.0354026
0.0446511
0.0499869
0.0519752
0.0512099
0.0480268
0.0432085
0.0375134
0.0311543
0.0246813
0.0177975
-0.165768
-0.213082
-0.254273
-0.284954
-0.302778
-0.305765
-0.29385
-0.268516
-0.234148
-0.19381
-0.150802
-0.108303
-0.0690728
-0.035222
-0.00808262
0.0118129
0.0246454
0.0311835
0.0326094
0.0303192
0.0257349
0.0201495
0.0146031
0.00981627
0.00615938
0.00357251
0.00208
0.00159307
0.00149256
0.00160164
0.00110443
-0.169028
-0.214479
-0.251893
-0.276418
-0.285794
-0.278267
-0.254434
-0.216727
-0.170676
-0.12041
-0.0702246
-0.0241015
0.0146609
0.0437462
0.0619626
0.0692493
0.0665404
0.0555674
0.0385974
0.0181426
-0.0033176
-0.0235731
-0.0408685
-0.0540083
-0.0624021
-0.0657915
-0.064483
-0.0591296
-0.0510856
-0.0413005
-0.0314082
-0.159854
-0.201997
-0.236076
-0.257327
-0.263625
-0.253376
-0.22731
-0.187996
-0.141009
-0.0906237
-0.0412905
0.00284722
0.0383424
0.0627592
0.0748382
0.0745254
0.0628579
0.0417814
0.013893
-0.0178463
-0.0504088
-0.0809694
-0.107137
-0.127115
-0.139801
-0.144116
-0.140286
-0.129185
-0.112662
-0.0923023
-0.0706357
-0.141774
-0.180177
-0.212203
-0.233681
-0.242633
-0.237546
-0.218761
-0.188206
-0.150495
-0.109169
-0.0680262
-0.0307308
-0.000473091
0.0203192
0.0301649
0.02861
0.0161919
-0.0056558
-0.0347718
-0.0684712
-0.103791
-0.137738
-0.167544
-0.190871
-0.205998
-0.210809
-0.205109
-0.189638
-0.166396
-0.13731
-0.105658
-0.115786
-0.149763
-0.180315
-0.204307
-0.219932
-0.225716
-0.221226
-0.207149
-0.186352
-0.160941
-0.13341
-0.106406
-0.0824991
-0.0639576
-0.0525542
-0.0494204
-0.0549674
-0.0688443
-0.0899584
-0.116537
-0.146261
-0.176452
-0.204305
-0.227139
-0.242664
-0.247776
-0.241626
-0.224503
-0.198192
-0.164583
-0.12738
-0.0807171
-0.108379
-0.136255
-0.16263
-0.18594
-0.204781
-0.217772
-0.224034
-0.224168
-0.218416
-0.207538
-0.192793
-0.175849
-0.158654
-0.143248
-0.13155
-0.125152
-0.125114
-0.13181
-0.14481
-0.162873
-0.184027
-0.205768
-0.225317
-0.239958
-0.245836
-0.241337
-0.226066
-0.201281
-0.168481
-0.131394
-0.0352058
-0.0533793
-0.0755567
-0.101727
-0.130709
-0.161271
-0.191129
-0.217797
-0.239374
-0.254083
-0.26077
-0.259112
-0.249699
-0.234007
-0.214235
-0.193037
-0.173186
-0.157223
-0.14711
-0.143939
-0.147761
-0.157554
-0.171353
-0.186502
-0.200042
-0.207673
-0.207024
-0.196907
-0.177855
-0.150735
-0.118922
0.0198411
0.0146919
0.0020105
-0.0200616
-0.050887
-0.0895489
-0.133064
-0.177522
-0.21854
-0.252401
-0.27607
-0.287625
-0.2865
-0.273578
-0.251059
-0.222154
-0.190646
-0.160395
-0.134839
-0.116529
-0.106812
-0.10568
-0.111826
-0.122873
-0.135787
-0.146106
-0.150812
-0.147942
-0.137252
-0.118885
-0.0956033
0.0796765
0.089931
0.0896268
0.0750451
0.0461538
0.00343713
-0.0496867
-0.108192
-0.165439
-0.216022
-0.255217
-0.279619
-0.287536
-0.279185
-0.256608
-0.223338
-0.183893
-0.143165
-0.105792
-0.0755613
-0.05496
-0.0449178
-0.044797
-0.0525826
-0.0652985
-0.0785291
-0.0887931
-0.0934773
-0.0916284
-0.0827207
-0.0687791
0.136025
0.161505
0.17401
0.168176
0.143278
0.099328
0.0399547
-0.0290296
-0.0991256
-0.163576
-0.216272
-0.252547
-0.2697
-0.267285
-0.247067
-0.212691
-0.169118
-0.121946
-0.0766846
-0.0380613
-0.00947025
0.007369
0.0124851
0.00750195
-0.00476387
-0.0200743
-0.0346919
-0.0455466
-0.0511143
-0.0503437
-0.0445224
0.179373
0.216789
0.239467
0.240813
0.219525
0.175209
0.111574
0.0349355
-0.0448651
-0.120103
-0.183646
-0.229869
-0.255265
-0.258806
-0.241944
-0.208284
-0.162996
-0.112096
-0.0616576
-0.0170601
0.0176344
0.0400827
0.0497875
0.0479795
0.0372409
0.0215523
0.00471025
-0.00996325
-0.0205238
-0.0255519
-0.02568
0.202345
0.245964
0.273778
0.27852
0.258548
0.213217
0.146281
0.0643379
-0.0220297
-0.104527
-0.175402
-0.228427
-0.259557
-0.267348
-0.25298
-0.219947
-0.17347
-0.119757
-0.0652002
-0.0155826
0.0245766
0.0524637
0.0671384
0.0694489
0.0616873
0.0475141
0.0306312
0.0144379
0.00117658
-0.00748194
-0.0116277
0.202638
0.245994
0.27324
0.277034
0.255683
0.208487
0.139247
0.0546458
-0.0346131
-0.120075
-0.193794
-0.249326
-0.282408
-0.291389
-0.277275
-0.24344
-0.195046
-0.138328
-0.0797857
-0.0253926
0.0200634
0.0534424
0.0734466
0.0805664
0.0767712
0.0653354
0.0497682
0.0334248
0.0187595
0.00763295
0.000394253
0.184151
0.222126
0.244518
0.244432
0.220373
0.171752
0.102379
0.0188057
-0.0687315
-0.152032
-0.223385
-0.276526
-0.307293
-0.314053
-0.297747
-0.261625
-0.210702
-0.151073
-0.0891389
-0.0308524
0.0189302
0.0569021
0.0815159
0.0929559
0.0928659
0.0840684
0.0698304
0.053393
0.0373512
0.0237277
0.0132292
0.155567
0.185947
0.202118
0.197985
0.172389
0.124928
0.0592914
-0.0183668
-0.0987715
-0.174377
-0.238113
-0.284254
-0.309028
-0.311002
-0.291129
-0.252506
-0.199872
-0.13899
-0.0759277
-0.0163675
0.0349977
0.0748915
0.101663
0.115277
0.117086
0.109411
0.0952572
0.0777121
0.0594241
0.0425401
0.0280566
0.12698
0.150813
0.162563
0.157087
0.133549
0.0917081
0.0349133
-0.0313901
-0.0992371
-0.162089
-0.21385
-0.249623
-0.266234
-0.262568
-0.239603
-0.200193
-0.148641
-0.0901416
-0.030164
0.0261599
0.0745643
0.112031
0.136983
0.149288
0.150065
0.14112
0.125186
0.105159
0.083619
0.0627578
0.0437925
0.106094
0.126713
0.137909
0.13545
0.118702
0.0874763
0.0445233
-0.00571049
-0.0567507
-0.103318
-0.140515
-0.164449
-0.172653
-0.16436
-0.140524
-0.103637
-0.0573739
-0.00612976
0.0454889
0.0931675
0.133321
0.163415
0.182124
0.189342
0.186027
0.173505
0.154209
0.130798
0.105635
0.0808305
0.0577318
0.0947426
0.115645
0.129968
0.13426
0.127936
0.110737
0.0846185
0.0528408
0.0203703
-0.00887923
-0.0312889
-0.0440117
-0.0452927
-0.034673
-0.0129997
0.0177165
0.0545828
0.0941767
0.132942
0.16757
0.195337
0.214348
0.22366
0.223287
0.214082
0.196953
0.174
0.147577
0.119685
0.0922077
0.066545
0.0900547
0.113277
0.132574
0.145128
0.150283
0.147626
0.138262
0.124244
0.109147
0.0955769
0.0859488
0.0821485
0.0853066
0.0956608
0.112551
0.134522
0.159527
0.185179
0.209025
0.228814
0.242728
0.249558
0.248778
0.240551
0.225637
0.204608
0.179185
0.151343
0.122634
0.0946
0.0685501
0.0842329
0.108686
0.131288
0.149828
0.163569
0.172037
0.175528
0.175075
0.173067
0.171011
0.170322
0.172105
0.177008
0.185142
0.196075
0.208898
0.222357
0.235012
0.245408
0.252236
0.254481
0.251527
0.243197
0.22975
0.211826
0.189729
0.16476
0.1385
0.111979
0.08634
0.0625984
0.0713249
0.0937809
0.115777
0.135629
0.152658
0.166249
0.176387
0.183339
0.188535
0.192687
0.196494
0.200504
0.205047
0.210178
0.21568
0.221096
0.225804
0.229098
0.230285
0.228761
0.224093
0.216068
0.204717
0.190307
0.173307
0.153831
0.132782
0.111184
0.0897071
0.0690823
0.0500293
0.0514308
0.0684327
0.0857134
0.102104
0.117081
0.130009
0.14071
0.14919
0.156133
0.161774
0.166371
0.170144
0.173236
0.175692
0.17745
0.178361
0.178214
0.176776
0.173825
0.169179
0.162733
0.154473
0.144492
0.132982
0.120216
0.106212
0.0914335
0.0764204
0.0616239
0.0475057
0.0344337
0.112547
0.136819
0.153045
0.157108
0.148725
0.127799
0.0972
0.0610504
0.0253428
-0.00547792
-0.0276472
-0.0386583
-0.0375825
-0.0252094
-0.00390765
0.0227279
0.0504054
0.0747301
0.091808
0.0987946
0.0942852
0.0785032
0.0532267
0.0215309
-0.0127061
-0.0442841
-0.0692917
-0.0848073