# vtk DataFile Version 2.0
Func
ASCII
DATASET RECTILINEAR_GRID
DIMENSIONS 31 31 31
X_COORDINATES 31 double
-9.67742
-9.03226
-8.3871
-7.74194
-7.09677
-6.45161
-5.80645
-5.16129
-4.51613
-3.87097
-3.22581
-2.58065
-1.93548
-1.29032
-0.645161
0
0.645161
1.29032
1.93548
2.58065
3.22581
3.87097
4.51613
5.16129
5.80645
6.45161
7.09677
7.74194
8.3871
9.03226
9.67742
Y_COORDINATES 31 double
-9.67742
-9.03226
-8.3871
-7.74194
-7.09677
-6.45161
-5.80645
-5.16129
-4.51613
-3.87097
-3.22581
-2.58065
-1.93548
-1.29032
-0.645161
0
0.645161
1.29032
1.93548
2.58065
3.22581
3.87097
4.51613
5.16129
5.80645
6.45161
7.09677
7.74194
8.3871
9.03226
9.67742
Z_COORDINATES 31 double
-9.67742
-9.03226
-8.3871
-7.74194
-7.09677
-6.45161
-5.80645
-5.16129
-4.51613
-3.87097
-3.22581
-2.58065
-1.93548
-1.29032
-0.645161
0
0.645161
1.29032
1.93548
2.58065
3.22581
3.87097
4.51613
5.16129
5.80645
6.45161
7.09677
7.74194
8.3871
9.03226
9.67742
POINT_DATA 29791
SCALARS data double 1
LOOKUP_TABLE default
-0.0156943
-0.0172846
-0.0167598
-0.013181
-0.00662804
0.00280459
0.0142545
0.0265963
0.0383794
0.0484046
0.0556254
0.0592961
0.0590568
0.05498
0.0475511
0.0375992
0.0261846
0.0144668
0.00356325
-0.00558133
-0.0122991
-0.0162638
-0.0175014
-0.016359
-0.0134186
-0.00947967
-0.00533636
-0.00171237
0.00106404
0.00267671
0.00340568
-0.0327616
-0.0380732
-0.0399171
-0.0367675
-0.0286095
-0.0155229
0.00125528
0.0200377
0.0384499
0.0545889
0.0667735
0.0737763
0.0749627
0.0703682
0.0606733
0.0470992
0.0312345
0.01483
-0.000419051
-0.0130777
-0.0221324
-0.0270931
-0.0280099
-0.0254239
-0.0202406
-0.0137128
-0.00703584
-0.00132484
0.00293023
0.00532443
0.00610289
-0.0569186
-0.0686523
-0.0757648
-0.0760544
-0.0692491
-0.0552327
-0.0354142
-0.0118993
0.0121017
0.0340863
0.0517944
0.0635138
0.06827
0.0659367
0.057215
0.04351
0.0267142
0.00895229
-0.00769421
-0.0214459
-0.0310324
-0.0358246
-0.0358604
-0.0317856
-0.0247038
-0.0161571
-0.00761924
-0.000420835
0.00483819
0.00768438
0.00837571
-0.0853233
-0.105732
-0.120884
-0.127879
-0.126059
-0.11488
-0.0957279
-0.0708086
-0.0438919
-0.0178222
0.00475657
0.0217539
0.0318559
0.0346667
0.0307003
0.0212598
0.00820909
-0.00629844
-0.0201143
-0.0313764
-0.038736
-0.0415056
-0.0396931
-0.0339453
-0.025391
-0.015635
-0.00619384
0.0015571
0.00704654
0.009811
0.0101691
-0.112508
-0.142234
-0.166759
-0.182627
-0.188746
-0.184051
-0.169626
-0.147443
-0.121428
-0.0944099
-0.0691123
-0.0477884
-0.0319898
-0.0224074
-0.0188612
-0.0204008
-0.0255136
-0.0323741
-0.0391178
-0.0441067
-0.0461458
-0.0446267
-0.0395633
-0.0315451
-0.0215898
-0.0111782
-0.00166277
0.00575154
0.0106477
0.0126747
0.012357
-0.132474
-0.170021
-0.203146
-0.22805
-0.243279
-0.247267
-0.240634
-0.224866
-0.203617
-0.179359
-0.154565
-0.13138
-0.111399
-0.0955166
-0.0839006
-0.076063
-0.0710311
-0.0675476
-0.0642954
-0.0601178
-0.0541976
-0.0461758
-0.0361788
-0.0247776
-0.0128548
-0.00171779
0.00755856
0.0140707
0.0176583
0.0181803
0.0164837
-0.140344
-0.182303
-0.22121
-0.253194
-0.276615
-0.289554
-0.292122
-0.285189
-0.271771
-0.253711
-0.232946
-0.211231
-0.189972
-0.170086
-0.15198
-0.135593
-0.120526
-0.106179
-0.0919184
-0.077228
-0.0618383
-0.0458014
-0.0294962
-0.0135844
0.00111155
0.0133846
0.0224491
0.027749
0.0294349
0.0276589
0.0236371
-0.134598
-0.176582
-0.217122
-0.252542
-0.281243
-0.301173
-0.312031
-0.314102
-0.309567
-0.299533
-0.285245
-0.267897
-0.248505
-0.227819
-0.206306
-0.184179
-0.161494
-0.138231
-0.114399
-0.0901338
-0.0657601
-0.0418214
-0.0190523
0.00167879
0.0194928
0.0331387
0.0420521
0.04598
0.045375
0.0407129
0.03358
-0.117385
-0.155221
-0.193026
-0.227528
-0.257357
-0.28057
-0.296639
-0.30544
-0.308342
-0.305796
-0.298397
-0.286754
-0.271424
-0.252863
-0.231429
-0.207417
-0.181122
-0.152897
-0.123211
-0.0926947
-0.0621621
-0.0325933
-0.00507527
0.0192753
0.0394425
0.0540186
0.0625633
0.0650235
0.0620737
0.0544733
0.0440646
-0.094012
-0.12486
-0.156475
-0.186071
-0.21262
-0.23446
-0.251076
-0.262217
-0.268683
-0.270543
-0.267977
-0.261181
-0.250343
-0.235627
-0.217194
-0.195245
-0.170079
-0.14214
-0.112052
-0.0806519
-0.0489793
-0.0182378
0.0102849
0.0353095
0.055702
0.0698971
0.077494
0.0785119
0.0736984
0.0639683
0.051194
-0.071214
-0.0942483
-0.117971
-0.140026
-0.159712
-0.175727
-0.187788
-0.195823
-0.200469
-0.201808
-0.199979
-0.195093
-0.187217
-0.176364
-0.162524
-0.145716
-0.12605
-0.103784
-0.0793614
-0.0534573
-0.0269681
-0.000978632
0.0233139
0.0446918
0.062047
0.0738122
0.0795934
0.0793667
0.0737626
0.0636484
0.0506182
-0.0550159
-0.0714862
-0.0876765
-0.10149
-0.112437
-0.119528
-0.122853
-0.122762
-0.120174
-0.115583
-0.109498
-0.102338
-0.0943821
-0.0857409
-0.0763771
-0.0661548
-0.0549082
-0.0425139
-0.0289608
-0.0144152
0.000750313
0.0159591
0.0304713
0.0434502
0.0540618
0.0610321
0.0640091
0.0628624
0.057918
0.0497633
0.0393931
-0.0489314
-0.0616138
-0.0724208
-0.0792927
-0.0817602
-0.079008
-0.0715098
-0.060148
-0.0464577
-0.031624
-0.0168513
-0.0032
0.00851441
0.0178003
0.0245016
0.0287686
0.0309914
0.0317153
0.031542
0.0310284
0.0306085
0.0305388
0.0308785
0.0315008
0.0321356
0.0321613
0.031372
0.0295432
0.0265709
0.0225699
0.017688
-0.0529993
-0.0652417
-0.073854
-0.0766138
-0.0728731
-0.061801
-0.0441274
-0.0211876
0.00475168
0.0317487
0.0577838
0.0809822
0.0997803
0.113069
0.120259
0.121291
0.116589
0.106987
0.0936071
0.0777403
0.0607136
0.0437741
0.0279902
0.0141878
0.00291096
-0.00548957
-0.0109209
-0.013604
-0.0140838
-0.0127985
-0.0105498
-0.0638984
-0.0785481
-0.0881918
-0.0903404
-0.0840141
-0.0681854
-0.0435978
-0.0117821
0.0244266
0.0625172
0.0997842
0.133592
0.161597
0.181952
0.19344
0.195534
0.188409
0.172887
0.150346
0.122587
0.09168
0.0597913
0.0290084
0.00119204
-0.0221611
-0.0395434
-0.0503917
-0.0547555
-0.0534934
-0.0475209
-0.0385101
-0.0760155
-0.0945302
-0.10749
-0.112178
-0.107219
-0.091272
-0.0647957
-0.0291399
0.0127044
0.0580578
0.103886
0.147067
0.184641
0.214056
0.233363
0.241354
0.237628
0.222617
0.197541
0.164309
0.125376
0.0835353
0.0416949
0.00264454
-0.0311774
-0.0571117
-0.0739743
-0.0814432
-0.0804483
-0.0721576
-0.0588722
-0.0831194
-0.105093
-0.122021
-0.131139
-0.13073
-0.119118
-0.0962095
-0.0627746
-0.0214057
0.0255593
0.0752502
0.124486
0.170007
0.208739
0.23803
0.255861
0.261
0.253122
0.232845
0.201718
0.162103
0.117001
0.0697792
0.0238954
-0.0174279
-0.0505692
-0.073637
-0.0857637
-0.0876613
-0.0804431
-0.0667049
-0.0801824
-0.103412
-0.123106
-0.136748
-0.142428
-0.138235
-0.123357
-0.0976828
-0.0628622
-0.0204132
0.0274531
0.077962
0.127951
0.17411
0.213243
0.242538
0.259821
0.263771
0.254074
0.231508
0.197909
0.156034
0.109305
0.0614978
0.0163542
-0.0218588
-0.0505573
-0.0682412
-0.0751671
-0.0721078
-0.0616243
-0.0648951
-0.0859756
-0.105714
-0.122164
-0.133448
-0.137611
-0.133126
-0.118883
-0.0952122
-0.0625026
-0.021943
0.0244815
0.0740801
0.123641
0.169691
0.208814
0.237975
0.254845
0.25806
0.247424
0.22396
0.189855
0.148225
0.102818
0.0575833
0.0170693
-0.0155865
-0.0382989
-0.050773
-0.0532824
-0.048117
-0.0385022
-0.0538126
-0.0701597
-0.08643
-0.101025
-0.112187
-0.117854
-0.116034
-0.105645
-0.0858898
-0.0568068
-0.0193859
0.0244208
0.071812
0.119373
0.16341
0.200323
0.22701
0.241219
0.241835
0.229031
0.204281
0.17018
0.130169
0.0880998
0.0484688
0.0147061
-0.010712
-0.0270312
-0.0340544
-0.0337083
-0.00572451
-0.0125451
-0.0224197
-0.035191
-0.0497425
-0.064746
-0.0779205
-0.0867296
-0.0889032
-0.0826867
-0.0670999
-0.0421599
-0.00897427
0.0302968
0.0726358
0.114484
0.152135
0.182162
0.201824
0.209403
0.204423
0.187715
0.161296
0.128126
0.0917064
0.0562113
0.0250183
0.000682802
-0.0158383
-0.0240846
-0.0256643
0.0263119
0.0288671
0.0271726
0.0204985
0.00937049
-0.00546695
-0.021898
-0.0373141
-0.0487633
-0.0539811
-0.0513352
-0.0401031
-0.0206177
0.00571076
0.0365392
0.0688637
0.0993846
0.12491
0.142751
0.151064
0.149088
0.137237
0.117022
0.0908513
0.0616822
0.0331702
0.00826942
-0.0107445
-0.0230513
-0.0282313
-0.0277009
0.0499283
0.0604686
0.066651
0.0671198
0.0618297
0.0509092
0.0359547
0.0191505
0.00346089
-0.00890145
-0.016154
-0.0172147
-0.0118587
-0.000771787
0.0145414
0.0319625
0.0490538
0.0633847
0.0728585
0.0760054
0.0721839
0.0616712
0.0456088
0.0258479
0.00467116
-0.0149348
-0.0307576
-0.0411227
-0.0456481
-0.0442357
-0.0382387
0.0591466
0.0742489
0.0859837
0.0927684
0.0941334
0.0896895
0.0802788
0.0672583
0.0529292
0.0389156
0.0266379
0.0171087
0.0108102
0.00763776
0.00694631
0.00767449
0.00853515
0.00822516
0.00563679
5.14234e-05
-0.00873192
-0.0203415
-0.0338784
-0.0480282
-0.0612536
-0.071363
-0.077085
-0.0775444
-0.0729618
-0.0637089
-0.0511375
0.0516787
0.0668006
0.0804007
0.0911054
0.0982545
0.101147
0.0997928
0.0945106
0.086416
0.0761592
0.0643992
0.0517098
0.0385241
0.025102
0.0115409
-0.00218287
-0.0161436
-0.0303941
-0.0448951
-0.0594489
-0.0736674
-0.08697
-0.0986311
-0.107848
-0.113844
-0.115322
-0.111986
-0.103799
-0.0915564
-0.0760649
-0.0586429
0.0297365
0.0405213
0.0520443
0.063519
0.0743438
0.0837548
0.0910204
0.0954251
0.0966472
0.0942088
0.0878078
0.0773517
0.0629866
0.0451045
0.0243304
0.00148941
-0.0224394
-0.0463862
-0.069261
-0.0900166
-0.107716
-0.121588
-0.131074
-0.135858
-0.135879
-0.13078
-0.121119
-0.107575
-0.0913247
-0.0734197
-0.0550264
0.000353751
0.00400907
0.0105764
0.0199864
0.0318896
0.0456748
0.0600927
0.073611
0.084568
0.0914763
0.0931243
0.0887291
0.078041
0.0613949
0.0396855
0.0142781
-0.0131312
-0.0406867
-0.0665573
-0.0891073
-0.107043
-0.119514
-0.126154
-0.127079
-0.122823
-0.113897
-0.101462
-0.0866722
-0.0708047
-0.0548979
-0.0398779
-0.0275172
-0.0312444
-0.0306045
-0.02491
-0.0141913
0.00122444
0.0198494
0.0396937
0.0581545
0.073078
0.0826166
0.0854622
0.081007
0.0694264
0.0516504
0.0292441
0.00421087
-0.0212433
-0.044962
-0.0650743
-0.0801879
-0.0895103
-0.0928891
-0.090771
-0.0840917
-0.0740303
-0.062038
-0.0494612
-0.0374184
-0.0267214
-0.0179242
-0.0448007
-0.0534874
-0.0574727
-0.0555113
-0.0473543
-0.0330927
-0.0140962
0.00760115
0.02908
0.0480191
0.0623728
0.0706306
0.0719948
0.0664765
0.0548693
0.0386265
0.019653
5.87767e-05
-0.0181033
-0.0330866
-0.0436463
-0.0491597
-0.0496543
-0.0457498
-0.0385278
-0.0294913
-0.0200737
-0.0115015
-0.00460969
0.000127079
0.00255522
-0.046916
-0.0569551
-0.0630027
-0.0636047
-0.0584181
-0.0472522
-0.0313477
-0.0123505
0.00715368
0.0251545
0.0398468
0.0498672
0.0544468
0.0535005
0.0476038
0.0378898
0.0258707
0.0132291
0.00159402
-0.00767056
-0.0136287
-0.0158728
-0.0145368
-0.0102405
-0.00396587
0.00285283
0.00908239
0.013671
0.0161792
0.0164099
0.0145108
-0.0361253
-0.044124
-0.0495873
-0.0510803
-0.0484086
-0.041309
-0.0305875
-0.017422
-0.00358616
0.0095367
0.0206866
0.0289005
0.0336152
0.0347312
0.032598
0.0279414
0.0217425
0.0150947
0.00905107
0.00448049
0.00195676
0.00169313
0.00353856
0.00701766
0.0114257
0.0157238
0.0191159
0.020936
0.0210123
0.0192462
0.0160162
-0.0173623
-0.0177972
-0.0148926
-0.00774327
0.00347171
0.0183896
0.0355452
0.0531888
0.0691204
0.0815442
0.088972
0.0904374
0.0856218
0.074909
0.059333
0.0404486
0.0201333
0.000358955
-0.0170443
-0.0306037
-0.0393677
-0.043
-0.0417782
-0.0365224
-0.0284326
-0.0190813
-0.00993337
-0.0022682
0.00335608
0.00647162
0.00760562
-0.0388871
-0.0436412
-0.0430337
-0.0354701
-0.0210555
-0.000269716
0.0248082
0.0516119
0.0765689
0.0968581
0.110099
0.114687
0.109999
0.0964805
0.0755813
0.0495621
0.0211954
-0.00658081
-0.0310227
-0.049911
-0.0618021
-0.0661749
-0.0634325
-0.0547939
-0.0420603
-0.0276238
-0.0136277
-0.0020008
0.0064133
0.011014
0.0123092
-0.0707814
-0.083733
-0.0895455
-0.0857908
-0.0722485
-0.0492619
-0.0192291
0.0146823
0.047635
0.075913
0.0962994
0.106518
0.105512
0.0935771
0.0722937
0.0443024
0.0129293
-0.0182438
-0.0458306
-0.0670589
-0.0800928
-0.0842228
-0.0798795
-0.0685037
-0.05227
-0.0340923
-0.0166042
-0.00210268
0.00835014
0.0140385
0.0154767
-0.109301
-0.133762
-0.150007
-0.154706
-0.147106
-0.127085
-0.0970499
-0.0603166
-0.0226141
0.0117947
0.0391031
0.0564749
0.062374
0.0567421
0.0409478
0.01756
-0.0100488
-0.0381629
-0.0632119
-0.0822273
-0.0932002
-0.0952985
-0.0888933
-0.0754323
-0.0571513
-0.0370824
-0.0179628
-0.00222167
0.0090729
0.015188
0.0166545
-0.146495
-0.1835
-0.21221
-0.228539
-0.231124
-0.21922
-0.194833
-0.160945
-0.123595
-0.0870922
-0.0554158
-0.0316823
-0.0177994
-0.0142596
-0.0201642
-0.033418
-0.0511012
-0.0699007
-0.0865737
-0.0983873
-0.103466
-0.101008
-0.0913213
-0.0757141
-0.0562238
-0.0356569
-0.0165131
-0.0010175
0.00992381
0.0156962
0.0169819
-0.173707
-0.221257
-0.261473
-0.289797
-0.304359
-0.303776
-0.289414
-0.263573
-0.23198
-0.198497
-0.166814
-0.139953
-0.119939
-0.107594
-0.102538
-0.103336
-0.107816
-0.11343
-0.117648
-0.118339
-0.114067
-0.104279
-0.0893392
-0.07043
-0.0493172
-0.0284619
-0.00993153
0.00445782
0.0140957
0.0186115
0.0189813
-0.184059
-0.237495
-0.285447
-0.323264
-0.348808
-0.360214
-0.358146
-0.344045
-0.322767
-0.297326
-0.270701
-0.24542
-0.223294
-0.205228
-0.191223
-0.180475
-0.171632
-0.163063
-0.153164
-0.140648
-0.124765
-0.105444
-0.0832927
-0.0595121
-0.035683
-0.0140064
0.00392623
0.0167934
0.0243459
0.0265693
0.0248085
-0.175551
-0.228889
-0.27898
-0.321463
-0.354248
-0.375248
-0.384558
-0.382824
-0.373715
-0.359221
-0.341378
-0.321952
-0.302248
-0.282978
-0.264266
-0.245732
-0.226682
-0.206307
-0.183895
-0.159038
-0.131764
-0.102614
-0.0726096
-0.04315
-0.0158091
0.00725011
0.0248217
0.0360306
0.0409692
0.0400239
0.0349592
-0.151592
-0.199251
-0.245669
-0.287057
-0.32164
-0.347398
-0.364121
-0.371923
-0.37329
-0.369292
-0.361052
-0.349534
-0.335419
-0.319034
-0.300383
-0.279227
-0.255238
-0.228146
-0.197885
-0.164733
-0.129378
-0.0929315
-0.0568566
-0.0228442
0.00739664
0.0315434
0.048628
0.0580853
0.0602444
0.0558453
0.0469824
-0.119985
-0.158329
-0.196596
-0.231664
-0.262216
-0.286525
-0.304404
-0.31583
-0.32245
-0.324788
-0.323379
-0.318612
-0.310661
-0.29946
-0.284757
-0.266206
-0.243509
-0.216543
-0.185484
-0.150904
-0.113813
-0.0756268
-0.0380781
-0.00306737
0.0275521
0.0512556
0.0671676
0.0748544
0.0747024
0.0676413
0.0558492
-0.0903022
-0.118526
-0.146607
-0.171978
-0.193755
-0.210605
-0.222661
-0.230181
-0.234559
-0.236326
-0.235957
-0.233721
-0.22963
-0.223417
-0.214609
-0.202625
-0.186927
-0.167156
-0.143265
-0.115626
-0.0850726
-0.0528792
-0.0206688
0.00972936
0.0364905
0.0570775
0.0706249
0.0766603
0.0754121
0.0677346
0.0555124
-0.0707323
-0.0908341
-0.109478
-0.124379
-0.134908
-0.140086
-0.140538
-0.137124
-0.13163
-0.125155
-0.118692
-0.112944
-0.108228
-0.10443
-0.101052
-0.0973236
-0.0923461
-0.0852638
-0.0754244
-0.0625305
-0.046723
-0.028606
-0.00920065
0.0101635
0.0280209
0.0422283
0.0519425
0.0565501
0.0559232
0.0505354
0.0415567
-0.065544
-0.0814555
-0.0937274
-0.100016
-0.0996825
-0.0919398
-0.0778978
-0.0591336
-0.038312
-0.0174871
0.00138127
0.0166898
0.0273604
0.0329566
0.0336803
0.0302931
0.0239686
0.0161094
0.00814658
0.00133927
-0.00337675
-0.00549086
-0.00495249
-0.0021365
0.00225372
0.00698518
0.0113527
0.0146073
0.0161533
0.0158318
0.0137547
-0.0738944
-0.09009
-0.100277
-0.101771
-0.0936547
-0.0751029
-0.0475104
-0.0130232
0.0246658
0.0624733
0.097319
0.126469
0.147795
0.159978
0.162583
0.156036
0.141505
0.120735
0.0958219
0.0689874
0.042355
0.0177635
-0.00337041
-0.0201225
-0.0320752
-0.0390808
-0.0415018
-0.0400876
-0.0358722
-0.0297461
-0.0228054
-0.0902652
-0.110283
-0.122516
-0.12382
-0.112803
-0.08838
-0.0518754
-0.00560853
0.0459683
0.0990373
0.149608
0.193916
0.228754
0.251759
0.26158
0.257935
0.241568
0.214127
0.177976
0.13597
0.0911947
0.0467138
0.00532562
-0.0306219
-0.059381
-0.0791436
-0.0896737
-0.0914713
-0.0858162
-0.074216
-0.058868
-0.106256
-0.13155
-0.148523
-0.153668
-0.145059
-0.121199
-0.0829202
-0.0321625
0.0265033
0.0891272
0.151349
0.20879
0.257414
0.293876
0.315761
0.321762
0.311727
0.286648
0.248554
0.200347
0.145558
0.0880615
0.0317602
-0.0197105
-0.0632704
-0.0954475
-0.115155
-0.122333
-0.118186
-0.104523
-0.0842959
-0.113135
-0.142568
-0.164692
-0.175961
-0.174002
-0.15688
-0.12456
-0.0780363
-0.0211518
0.0427651
0.109712
0.175328
0.235218
0.285314
0.32218
0.343294
0.347229
0.333784
0.304011
0.260174
0.205579
0.144306
0.0808669
0.0198282
-0.0346019
-0.0775529
-0.106909
-0.121765
-0.122894
-0.111973
-0.0922326
-0.104441
-0.134523
-0.15976
-0.177017
-0.18371
-0.177571
-0.157486
-0.123092
-0.0766838
-0.0202729
0.0432145
0.110105
0.176216
0.237163
0.288712
0.327146
0.349589
0.3543
0.340876
0.310365
0.265218
0.209106
0.14658
0.0826587
0.0223239
-0.0286049
-0.0669494
-0.0907976
-0.100218
-0.0963585
-0.0822598
-0.0779679
-0.103812
-0.128224
-0.148963
-0.163549
-0.169613
-0.164982
-0.14781
-0.118287
-0.0766752
-0.0243167
0.0363401
0.101842
0.16796
0.230032
0.283401
0.323861
0.34811
0.354128
0.341464
0.311329
0.266526
0.211162
0.150233
0.089068
0.0339245
-0.011114
-0.0431773
-0.0615404
-0.0666095
-0.0609206
-0.0366782
-0.0534175
-0.0723316
-0.0924407
-0.111703
-0.12794
-0.138199
-0.139361
-0.1294
-0.106782
-0.0711133
-0.0233566
0.034119
0.0976607
0.162644
0.223932
0.276417
0.315585
0.338042
0.341944
0.327231
0.295667
0.250626
0.19671
0.139177
0.0842574
0.0365829
-0.000298776
-0.025024
-0.0373058
-0.0390982
0.0117168
0.00740837
-0.00206128
-0.0171097
-0.0363904
-0.058207
-0.0792997
-0.0957959
-0.103838
-0.100468
-0.0837997
-0.0533906
-0.0104158
0.0423494
0.100785
0.159869
0.214251
0.258871
0.289565
0.303576
0.299895
0.27938
0.244615
0.199583
0.149115
0.0990516
0.0540647
0.0179071
-0.0077825
-0.0223238
-0.0272287
0.0565277
0.0652401
0.067101
0.0604547
0.0458333
0.0242457
-0.0012945
-0.0268706
-0.0476033
-0.0598126
-0.0607041
-0.0488197
-0.0242853
0.0111274
0.0541882
0.100594
0.145505
0.184144
0.212388
0.227291
0.227453
0.213176
0.186386
0.150352
0.10921
0.0681439
0.0313015
0.00208631
-0.0180512
-0.028473
-0.0305093
0.086835
0.105948
0.118189
0.121109
0.114486
0.0985827
0.0756609
0.0489579
0.023318
0.00228025
-0.0112294
-0.0153328
-0.00945538
0.00557469
0.0276456
0.0536561
0.0799554
0.102834
0.119021
0.126133
0.122989
0.109764
0.0879299
0.0600417
0.0293483
0.000161179
-0.0243873
-0.0417428
-0.0510558
-0.0521324
-0.0463604
0.0946772
0.118846
0.137781
0.148878
0.151389
0.144926
0.130678
0.11063
0.0885358
0.0669775
0.0482347
0.0339559
0.0249604
0.0211473
0.0215556
0.0245471
0.0280987
0.0301245
0.0288039
0.0228855
0.0118901
-0.00379344
-0.0229596
-0.0437469
-0.0639108
-0.0802088
-0.0908374
-0.0944005
-0.0908837
-0.0807512
-0.0655504
0.0777212
0.100264
0.120479
0.136277
0.146726
0.151019
0.149176
0.141651
0.130291
0.116146
0.100255
0.0834935
0.0664797
0.0495323
0.0326851
0.0157544
-0.00154355
-0.0194712
-0.0381507
-0.0574495
-0.0769248
-0.0958111
-0.11308
-0.127545
-0.138009
-0.142478
-0.140535
-0.132004
-0.11769
-0.0986684
-0.0765669
0.0401929
0.0549627
0.0709092
0.0870069
0.102484
0.116413
0.127786
0.13556
0.139292
0.138276
0.132028
0.12033
0.103275
0.0812817
0.0550898
0.0257182
-0.00558839
-0.0374389
-0.0683861
-0.0970091
-0.122007
-0.142276
-0.156977
-0.165582
-0.167903
-0.163307
-0.152581
-0.136582
-0.116696
-0.094347
-0.071009
-0.0067859
-0.0034103
0.00445282
0.0170214
0.0339368
0.0544136
0.0767463
0.0987311
0.117792
0.131665
0.138443
0.136814
0.126216
0.106929
0.0800504
0.0473765
0.0112087
-0.0258878
-0.0613457
-0.0928411
-0.118508
-0.137083
-0.147976
-0.151266
-0.147617
-0.137697
-0.123123
-0.105417
-0.086194
-0.066859
-0.0485273
-0.0499193
-0.0578773
-0.0591038
-0.0521673
-0.0369408
-0.0138862
0.0149762
0.0468038
0.0775121
0.103799
0.122768
0.132283
0.131224
0.119614
0.0985991
0.0702838
0.0374467
0.00320275
-0.0293638
-0.057547
-0.0793036
-0.0934339
-0.0996456
-0.0985033
-0.0912687
-0.0796449
-0.0656313
-0.05101
-0.0372656
-0.0254875
-0.0162172
-0.0756726
-0.0910242
-0.0990227
-0.0974604
-0.0858153
-0.0643036
-0.0347425
-2.83027e-05
0.0352218
0.0674294
0.0933834
0.110641
0.117804
0.114669
0.102208
0.0823975
0.057914
0.0317745
0.00695024
-0.0140042
-0.029242
-0.0378041
-0.0396673
-0.0356667
-0.0273051
-0.0168226
-0.00617338
0.0030583
0.00968229
0.0130777
0.0132662
-0.0778072
-0.0949132
-0.105648
-0.107601
-0.100132
-0.0830461
-0.0580463
-0.0274671
0.00455891
0.0349019
0.0607088
0.0797697
0.0907578
0.0933709
0.0883099
0.0771345
0.0619986
0.0453405
0.0295496
0.0166459
0.00803575
0.00435997
0.00546793
0.010495
0.0180457
0.0259342
0.0326384
0.0367674
0.0376635
0.0350883
0.0294615
-0.060087
-0.0736962
-0.0830872
-0.0860539
-0.0821613
-0.0710388
-0.0538305
-0.0322751
-0.00924065
0.013079
0.0326599
0.0479179
0.0578754
0.0622646
0.0615123
0.0566366
0.049063
0.040408
0.0322474
0.0258941
0.0222282
0.0215958
0.0237993
0.0281556
0.033638
0.0386386
0.0420477
0.0429681
0.0411467
0.0364988
0.0296832
-0.0107548
-0.00776106
-0.000719723
0.0111511
0.0273169
0.0469366
0.0680707
0.088303
0.104945
0.1158
0.119178
0.114156
0.100722
0.0798221
0.0532533
0.0234599
-0.00676165
-0.0345938
-0.0575317
-0.0736801
-0.0819689
-0.0822618
-0.0753251
-0.0626952
-0.0464186
-0.0290762
-0.0129687
2.12447e-05
0.00912253
0.013755
0.014876
-0.031867
-0.0323206
-0.0262457
-0.0121695
0.00933242
0.0371065
0.0684093
0.0996443
0.126451
0.145363
0.153637
0.149665
0.133216
0.105506
0.0690679
0.0274444
-0.0152504
-0.0548304
-0.0875414
-0.110514
-0.122095
-0.122016
-0.111357
-0.0923511
-0.0680117
-0.0422019
-0.0182441
0.00105698
0.0145083
0.0213674
0.0226418
-0.0660567
-0.0747176
-0.0745677
-0.0632507
-0.0410453
-0.00910063
0.0293849
0.0699142
0.106541
0.13465
0.150461
0.151584
0.137343
0.108903
0.0691256
0.0222059
-0.0268735
-0.0729633
-0.111381
-0.138486
-0.152106
-0.151762
-0.138643
-0.115371
-0.0855616
-0.0538866
-0.0244373
-0.000542129
0.0162437
0.0250026
0.0267611
-0.109147
-0.130213
-0.140952
-0.137994
-0.121034
-0.0908337
-0.0506016
-0.00518489
0.0383048
0.0744885
0.0988
0.108128
0.101217
0.0788434
0.0436921
-1.51662e-05
-0.0471043
-0.0921173
-0.130004
-0.156756
-0.169885
-0.16869
-0.154248
-0.129185
-0.0972171
-0.0631847
-0.0313846
-0.00538655
0.0131658
0.0232517
0.0258482
-0.151357
-0.186275
-0.210537
-0.219882
-0.213298
-0.190911
-0.155447
-0.111493
-0.0666315
-0.026415
0.00427181
0.0218812
0.024638
0.0127517
-0.011666
-0.044933
-0.0823529
-0.118852
-0.149646
-0.170865
-0.180023
-0.1763
-0.160552
-0.135112
-0.103366
-0.0697594
-0.0383101
-0.0123647
0.00652275
0.017362
0.0211368
-0.181794
-0.228304
-0.265097
-0.287357
-0.293468
-0.282871
-0.257529
-0.22131
-0.1815
-0.143224
-0.111135
-0.0887788
-0.0781752
-0.0795951
-0.091604
-0.111334
-0.134965
-0.158279
-0.177245
-0.188568
-0.190114
-0.181167
-0.162449
-0.135954
-0.104578
-0.0721353
-0.0420897
-0.0172875
0.000956764
0.0118122
0.0163964
-0.19226
-0.245007
-0.290109
-0.322652
-0.340705
-0.343163
-0.331164
-0.307597
-0.278746
-0.24879
-0.221616
-0.200278
-0.186631
-0.181142
-0.182905
-0.189862
-0.199189
-0.207741
-0.212525
-0.21114
-0.202122
-0.185137
-0.160996
-0.13151
-0.0991692
-0.0672271
-0.038523
-0.0152733
0.00152431
0.011335
0.015493
-0.180706
-0.232865
-0.279996
-0.317548
-0.343655
-0.356938
-0.357895
-0.348457
-0.333496
-0.316
-0.298773
-0.284011
-0.273036
-0.266145
-0.262646
-0.261035
-0.259305
-0.255289
-0.247026
-0.23309
-0.212836
-0.186525
-0.155304
-0.121058
-0.0861192
-0.0534862
-0.0254978
-0.00378669
0.010955
0.0185691
0.0207167
-0.151969
-0.197417
-0.240239
-0.276573
-0.304931
-0.32397
-0.333877
-0.335901
-0.333491
-0.328532
-0.322753
-0.317406
-0.313098
-0.309701
-0.306421
-0.301957
-0.294768
-0.283345
-0.266493
-0.24358
-0.2147
-0.180725
-0.143249
-0.104417
-0.0666384
-0.0329756
-0.00546787
0.0146685
0.0269544
0.0315977
0.030563
-0.11608
-0.151179
-0.185078
-0.214684
-0.239042
-0.257082
-0.269071
-0.276021
-0.280376
-0.283357
-0.285974
-0.288791
-0.291813
-0.294453
-0.295628
-0.293931
-0.287882
-0.276173
-0.257918
-0.232857
-0.201476
-0.165022
-0.125406
-0.0850182
-0.0464296
-0.0129209
0.0135732
0.0320217
0.0419944
0.0439241
0.0398821
-0.0847231
-0.109233
-0.132498
-0.152017
-0.167311
-0.177685
-0.183813
-0.186965
-0.189308
-0.19205
-0.196114
-0.201912
-0.209246
-0.21729
-0.2247
-0.229805
-0.230859
-0.226309
-0.215043
-0.196617
-0.171371
-0.140446
-0.105691
-0.0694749
-0.0343867
-0.0037887
0.02038
0.037039
0.0456129
0.0464912
0.0414899
-0.0671932
-0.0840252
-0.0980671
-0.107044
-0.110712
-0.108699
-0.102255
-0.0932922
-0.0844926
-0.077726
-0.0745233
-0.0758034
-0.0817293
-0.0916534
-0.104211
-0.117512
-0.129413
-0.137807
-0.140926
-0.137603
-0.127448
-0.110906
-0.0892211
-0.0642709
-0.0383084
-0.0143517
0.00567732
0.0204877
0.029187
0.0317914
0.0294204
-0.0673561
-0.0813353
-0.0899575
-0.0907514
-0.083376
-0.0675991
-0.0451925
-0.018857
0.0076317
0.0312843
0.0494317
0.0600897
0.0621939
0.0557326
0.0417086
0.0219756
-0.00102956
-0.0246074
-0.0461373
-0.0634029
-0.0748422
-0.0796998
-0.0780679
-0.0708086
-0.0593692
-0.0458275
-0.0319311
-0.0192072
-0.00894438
-0.00178373
0.00232014
-0.0825455
-0.0986526
-0.10667
-0.103613
-0.0887244
-0.0616628
-0.0244425
0.0196242
0.0655272
0.109096
0.146361
0.174019
0.189767
0.192542
0.182569
0.161266
0.131007
0.0948192
0.0560198
0.017856
-0.0168198
-0.0458019
-0.0676819
-0.0818888
-0.0886251
-0.0884536
-0.0826762
-0.0729075
-0.0607627
-0.0476529
-0.0347801
-0.104604
-0.126261
-0.137907
-0.135956
-0.11903
-0.0864403
-0.0399938
0.0168713
0.0783104
0.139371
0.195082
0.240975
0.273502
0.290368
0.290683
0.274969
0.245009
0.203609
0.154276
0.100874
0.0472647
-0.00302452
-0.0470561
-0.0826581
-0.108512
-0.123297
-0.127534
-0.122608
-0.110222
-0.0924168
-0.0715247
-0.122567
-0.150465
-0.168035
-0.171295
-0.158211
-0.127592
-0.0805273
-0.0198924
0.0485033
0.119707
0.188452
0.249654
0.298856
0.332615
0.348756
0.346501
0.326453
0.29049
0.241556
0.183405
0.120269
0.0565072
-0.00373404
-0.0568185
-0.0998705
-0.129635
-0.145525
-0.148269
-0.139291
-0.120879
-0.0960982
-0.126062
-0.157833
-0.18093
-0.191434
-0.186813
-0.165345
-0.12697
-0.0732894
-0.00896273
0.0620178
0.135017
0.205138
0.267607
0.318163
0.353383
0.37095
0.369798
0.3502
0.313737
0.263209
0.202403
0.135788
0.0681455
0.00417833
-0.0518857
-0.0951296
-0.123615
-0.137008
-0.136051
-0.122759
-0.100377
-0.108455
-0.139254
-0.164821
-0.181912
-0.187805
-0.180365
-0.158163
-0.120997
-0.0713273
-0.0113191
0.0559173
0.126501
0.196036
0.259931
0.313774
0.353706
0.376762
0.381165
0.366539
0.334023
0.28621
0.226951
0.161006
0.0936083
0.0299534
-0.0238719
-0.0645165
-0.0903171
-0.101048
-0.0979685
-0.0839791
-0.0689514
-0.0927792
-0.115929
-0.136428
-0.151749
-0.159596
-0.15724
-0.142499
-0.114965
-0.0744572
-0.0219603
0.0402914
0.108886
0.179447
0.246992
0.306409
0.352957
0.382781
0.393352
0.383815
0.355129
0.31001
0.252654
0.188298
0.122632
0.0623481
0.0120382
-0.0253141
-0.0484493
-0.057622
-0.0550609
-0.0131791
-0.0246288
-0.0400724
-0.059215
-0.0801054
-0.100601
-0.117047
-0.125541
-0.122731
-0.106084
-0.0743278
-0.027792
0.0314723
0.0997673
0.172074
0.242564
0.305235
0.354582
0.386246
0.397544
0.387809
0.358465
0.312848
0.255797
0.193036
0.131348
0.0761452
0.0314055
-0.000798211
-0.0198
-0.0271297
0.0478572
0.0518853
0.0481791
0.0352717
0.0142711
-0.0131476
-0.0430021
-0.0703274
-0.0894066
-0.0958886
-0.0866321
-0.060241
-0.0173484
0.0393363
0.105288
0.174671
0.24103
0.298054
0.340323
0.363975
0.367162
0.350244
0.315685
0.267697
0.211642
0.153998
0.100381
0.0551668
0.0207791
-0.00159889
-0.0130401
0.100337
0.119427
0.128817
0.125582
0.109899
0.0827527
0.047774
0.0100805
-0.0233734
-0.0473729
-0.0577199
-0.0518643
-0.0292769
0.00841732
0.0576258
0.113239
0.169292
0.219712
0.259071
0.283267
0.290019
0.279108
0.252333
0.213206
0.166416
0.117834
0.0725909
0.0347353
0.00646474
-0.0110924
-0.0189306
0.131122
0.161036
0.181496
0.188779
0.182254
0.162148
0.131144
0.093567
0.0561831
0.0239239
0.00100141
-0.00969334
-0.00696156
0.00853955
0.0344128
0.0668743
0.101307
0.132887
0.157221
0.170944
0.172143
0.160586
0.137689
0.106275
0.0701247
0.0342453
0.00265357
-0.0215835
-0.0370071
-0.0430683
-0.0410057
0.131544
0.16505
0.191495
0.207223
0.211124
0.202757
0.183501
0.156127
0.125814
0.0961456
0.0703269
0.0507384
0.0386515
0.0340919
0.0359
0.0419584
0.0495711
0.0558844
0.0583229
0.054995
0.0449786
0.0284635
0.0067139
-0.0181191
-0.0433248
-0.0650357
-0.0807624
-0.0888273
-0.0888079
-0.0810104
-0.067034
0.100361
0.129048
0.154666
0.174501
0.187387
0.192467
0.189738
0.180019
0.165854
0.148732
0.130099
0.111139
0.0926438
0.0749543
0.0579778
0.0412838
0.0242695
0.00633295
-0.0129532
-0.0336779
-0.0554977
-0.0776108
-0.0988171
-0.117648
-0.132556
-0.141088
-0.142394
-0.136264
-0.123306
-0.104618
-0.0820163
0.0444682
0.0610402
0.0792445
0.097979
0.116438
0.133659
0.14847
0.159744
0.166913
0.169109
0.165678
0.156236
0.140724
0.119442
0.093044
0.0625141
0.0291145
-0.00569087
-0.0403293
-0.0732075
-0.102814
-0.127813
-0.147125
-0.159997
-0.16604
-0.164423
-0.155755
-0.141045
-0.121658
-0.0991376
-0.0751661
-0.0208365
-0.0201456
-0.0134684
-0.00011347
0.0197456
0.045323
0.074685
0.105172
0.133353
0.15628
0.171374
0.176737
0.17136
0.155258
0.129454
0.0958617
0.0570519
0.0159749
-0.0243539
-0.0611533
-0.0921375
-0.1157
-0.131007
-0.138002
-0.137318
-0.129726
-0.116873
-0.100517
-0.0823601
-0.0639181
-0.0464169
-0.078466
-0.0927929
-0.0981805
-0.0922879
-0.0746189
-0.0455909
-0.00744757
0.0362693
0.0801131
0.119749
0.151268
0.17166
0.179151
0.173388
0.155437
0.127595
0.0930557
0.0554925
0.0186126
-0.0142788
-0.0406332
-0.0588896
-0.0685654
-0.0702034
-0.0651857
-0.0556009
-0.0436128
-0.0312349
-0.02007
-0.0112317
-0.00519877
-0.111218
-0.134865
-0.148683
-0.149406
-0.13603
-0.108737
-0.0694672
-0.0218958
0.0278128
0.074939
0.115154
0.145046
0.162497
0.166887
0.159096
0.141309
0.116641
0.0886954
0.0610842
0.0369583
0.0186406
0.00739503
0.00335522
0.00561344
0.0124491
0.0210549
0.0292514
0.0353282
0.0379617
0.0366236
0.031517
-0.111645
-0.136907
-0.153576
-0.158209
-0.149738
-0.127854
-0.0944263
-0.0524456
-0.00744329
0.0364312
0.0753238
0.106159
0.126962
0.137059
0.137064
0.128713
0.114538
0.0974769
0.0804578
0.0659903
0.0558529
0.0508991
0.0510147
0.0552108
0.0618466
0.0681445
0.0723934
0.0730789
0.0694944
0.0615397
0.0499066
-0.0857059
-0.105581
-0.119649
-0.124893
-0.120565
-0.106128
-0.0828615
-0.0530342
-0.0205088
0.0117789
0.0410754
0.0651658