# vtk DataFile Version 2.0
Func
ASCII
DATASET RECTILINEAR_GRID
DIMENSIONS 31 31 31
X_COORDINATES 31 double
-9.67742
-9.03226
-8.3871
-7.74194
-7.09677
-6.45161
-5.80645
-5.16129
-4.51613
-3.87097
-3.22581
-2.58065
-1.93548
-1.29032
-0.645161
0
0.645161
1.29032
1.93548
2.58065
3.22581
3.87097
4.51613
5.16129
5.80645
6.45161
7.09677
7.74194
8.3871
9.03226
9.67742
Y_COORDINATES 31 double
-9.67742
-9.03226
-8.3871
-7.74194
-7.09677
-6.45161
-5.80645
-5.16129
-4.51613
-3.87097
-3.22581
-2.58065
-1.93548
-1.29032
-0.645161
0
0.645161
1.29032
1.93548
2.58065
3.22581
3.87097
4.51613
5.16129
5.80645
6.45161
7.09677
7.74194
8.3871
9.03226
9.67742
Z_COORDINATES 31 double
-9.67742
-9.03226
-8.3871
-7.74194
-7.09677
-6.45161
-5.80645
-5.16129
-4.51613
-3.87097
-3.22581
-2.58065
-1.93548
-1.29032
-0.645161
0
0.645161
1.29032
1.93548
2.58065
3.22581
3.87097
4.51613
5.16129
5.80645
6.45161
7.09677
7.74194
8.3871
9.03226
9.67742
POINT_DATA 29791
SCALARS data double 1
LOOKUP_TABLE default
0.00609812
0.00689007
0.00678886
0.00574199
0.00386246
0.00139104
-0.00124328
-0.0036031
-0.00510077
-0.00537973
-0.00425999
-0.00178822
0.00174811
0.00583863
0.00980597
0.0128894
0.0143503
0.0135787
0.01019
0.00410246
-0.00442199
-0.0147797
-0.0260893
-0.03728
-0.0472398
-0.0545407
-0.0582795
-0.0579046
-0.053894
-0.0465044
-0.0373773
-0.00833582
-0.0124972
-0.0177779
-0.0235823
-0.0295887
-0.0351861
-0.0396061
-0.0422671
-0.0426028
-0.0402873
-0.0353129
-0.0280308
-0.0191536
-0.00970312
-0.000905983
0.00594464
0.00965352
0.0092872
0.00431587
-0.00527467
-0.0189359
-0.0355764
-0.0536751
-0.0714327
-0.0870059
-0.0979817
-0.103022
-0.101338
-0.0936243
-0.0804566
-0.064123
-0.0387647
-0.0525567
-0.0669825
-0.0806766
-0.0927759
-0.102082
-0.107669
-0.108822
-0.105458
-0.0975626
-0.0855882
-0.0704532
-0.0535068
-0.0364209
-0.0210347
-0.00916131
-0.00238077
-0.00183693
-0.00807163
-0.0209005
-0.0393784
-0.0618532
-0.0861326
-0.109702
-0.13003
-0.143801
-0.149281
-0.145609
-0.133677
-0.114423
-0.0906866
-0.0785964
-0.104399
-0.129665
-0.152193
-0.170429
-0.182658
-0.187771
-0.185126
-0.175504
-0.159459
-0.138123
-0.113153
-0.0866243
-0.0608677
-0.0382629
-0.0210075
-0.0108944
-0.00910062
-0.0160271
-0.0311902
-0.0532202
-0.0799551
-0.108657
-0.136275
-0.159802
-0.175328
-0.18095
-0.175728
-0.160759
-0.137267
-0.108383
-0.112829
-0.148647
-0.182284
-0.211009
-0.232703
-0.245283
-0.247664
-0.239418
-0.222272
-0.197431
-0.166725
-0.132487
-0.0973931
-0.0642426
-0.0357257
-0.0141808
-0.00138812
0.00161865
-0.0053209
-0.0214232
-0.0449995
-0.0735865
-0.104188
-0.13356
-0.158558
-0.175169
-0.181535
-0.176769
-0.161969
-0.138473
-0.1093
-0.125
-0.163791
-0.198999
-0.227904
-0.248183
-0.257751
-0.255697
-0.241862
-0.218585
-0.187517
-0.150897
-0.111388
-0.0718805
-0.0352623
-0.00418348
0.0191632
0.0332104
0.0371609
0.0310701
0.0158746
-0.00667679
-0.0341681
-0.0637493
-0.0923985
-0.117232
-0.134679
-0.143099
-0.141703
-0.13136
-0.113249
-0.089874
-0.105423
-0.137373
-0.16533
-0.187166
-0.200866
-0.204789
-0.198296
-0.181426
-0.156448
-0.125009
-0.0892128
-0.0514727
-0.0143297
0.0197484
0.0485569
0.0703265
0.0838398
0.088528
0.0845149
0.0726185
0.0542783
0.0314311
0.00632688
-0.0186712
-0.0413164
-0.0589754
-0.0703468
-0.0747473
-0.0725853
-0.064601
-0.052408
-0.0551999
-0.0714057
-0.0845175
-0.0936411
-0.0975585
-0.0954461
-0.0869437
-0.0720816
-0.0522409
-0.0284714
-0.00209337
0.0253834
0.0523668
0.0773003
0.0987768
0.115642
0.127064
0.132592
0.132186
0.126218
0.115436
0.100895
0.0838592
0.0656947
0.0477422
0.0314078
0.0175927
0.00689957
-0.000480721
-0.00465705
-0.00615161
0.0131751
0.0173989
0.0225381
0.0278411
0.0334363
0.0391484
0.0451683
0.0517436
0.0590709
0.0672271
0.0762299
0.085994
0.0963197
0.10689
0.117288
0.127029
0.135598
0.142491
0.147261
0.149558
0.149154
0.145968
0.140068
0.131673
0.121123
0.108591
0.0945777
0.0796345
0.0645537
0.0498866
0.0361937
0.0807823
0.104195
0.125538
0.142359
0.153703
0.158488
0.156913
0.149762
0.139127
0.126509
0.113531
0.101743
0.0924704
0.0866824
0.0849152
0.0872437
0.0933096
0.102376
0.113416
0.125215
0.136491
0.146007
0.152682
0.155683
0.154478
0.148298
0.137317
0.122061
0.103783
0.0835481
0.0627669
0.128933
0.164847
0.195675
0.21761
0.228927
0.227966
0.215128
0.191875
0.162021
0.128437
0.0942223
0.0623671
0.0354805
0.0155459
0.00377739
0.000558463
0.00548431
0.0174523
0.0348125
0.0555476
0.077477
0.0984571
0.11657
0.130266
0.138471
0.139991
0.134813
0.123469
0.107431
0.088006
0.0670518
0.145493
0.184134
0.215469
0.235025
0.240811
0.231057
0.206501
0.169232
0.124164
0.0751187
0.0261577
-0.0188531
-0.0565933
-0.0845923
-0.101401
-0.106651
-0.100982
-0.085901
-0.0635681
-0.0365495
-0.0075481
0.0208482
0.0463877
0.0673111
0.0824509
0.0907811
0.0922933
0.087568
0.0780252
0.0649134
0.0500553
0.128306
0.159996
0.183585
0.194769
0.19183
0.173358
0.140439
0.0955522
0.0438045
-0.0107056
-0.0637208
-0.111288
-0.150121
-0.177898
-0.193423
-0.196645
-0.188553
-0.170981
-0.146356
-0.117401
-0.0868445
-0.05716
-0.0303622
-0.00788479
0.00946941
0.0213478
0.0279468
0.0299359
0.0284665
0.0244848
0.0193351
0.0848177
0.102753
0.113426
0.113471
0.101861
0.0778682
0.0428231
-0.000780833
-0.0485802
-0.0969418
-0.142219
-0.181162
-0.211224
-0.230802
-0.239336
-0.237287
-0.225989
-0.20743
-0.183981
-0.158096
-0.132041
-0.10767
-0.0862769
-0.0685481
-0.0545841
-0.043785
-0.035598
-0.0292385
-0.023949
-0.0192093
-0.0144625
0.0286705
0.0304126
0.027099
0.0168026
-0.000626776
-0.0251256
-0.0553182
-0.0890954
-0.12355
-0.156123
-0.184398
-0.206398
-0.220788
-0.227015
-0.225332
-0.216728
-0.202759
-0.185328
-0.166437
-0.147918
-0.131222
-0.117262
-0.106353
-0.0982344
-0.0921863
-0.0866652
-0.0807171
-0.0734555
-0.0645438
-0.0538866
-0.0418309
-0.024999
-0.0375517
-0.0522287
-0.0694132
-0.0884446
-0.108591
-0.128655
-0.147215
-0.163142
-0.175259
-0.182653
-0.184819
-0.181745
-0.173937
-0.162377
-0.148414
-0.133608
-0.119538
-0.107599
-0.0988111
-0.093678
-0.0921179
-0.0934844
-0.0966578
-0.100224
-0.101973
-0.100643
-0.095313
-0.0860225
-0.0730093
-0.0574423
-0.0637352
-0.0855241
-0.10659
-0.126064
-0.142752
-0.155547
-0.163616
-0.166351
-0.164275
-0.157541
-0.146605
-0.132233
-0.115468
-0.0975759
-0.0799516
-0.0640052
-0.0510414
-0.0421216
-0.0379367
-0.038696
-0.0440695
-0.0531893
-0.0647319
-0.0770478
-0.0883674
-0.0962677
-0.0993907
-0.0969026
-0.089137
-0.0765349
-0.060843
-0.0802749
-0.104763
-0.126475
-0.143884
-0.155651
-0.160672
-0.158575
-0.149492
-0.135105
-0.116524
-0.0951052
-0.0723607
-0.0498548
-0.0290987
-0.0114532
0.00195984
0.0103216
0.0131832
0.0105133
0.00273008
-0.00930626
-0.024341
-0.0408304
-0.0570697
-0.0713813
-0.081628
-0.0866347
-0.0857912
-0.0796363
-0.0686855
-0.0549236
-0.0732101
-0.093985
-0.111131
-0.123178
-0.129041
-0.127978
-0.120082
-0.105995
-0.0878581
-0.0671776
-0.0455714
-0.0246281
-0.00578989
0.0097489
0.0211069
0.027751
0.0294915
0.0264756
0.0191652
0.00830795
-0.00510652
-0.0199053
-0.0348195
-0.0485719
-0.0600061
-0.0676957
-0.0709033
-0.0693514
-0.0636934
-0.0544101
-0.0433606
-0.046298
-0.0582875
-0.0670046
-0.0716794
-0.0717917
-0.0672261
-0.0584612
-0.0463577
-0.0328111
-0.0191567
-0.00665009
0.00365743
0.0110033
0.0149646
0.0154596
0.0127144
0.00719061
-0.000485238
-0.00959362
-0.0193842
-0.0291239
-0.0381327
-0.0458186
-0.0516965
-0.0554303
-0.0565702
-0.0549685
-0.050718
-0.0444883
-0.0366316
-0.0285575
-0.00709055
-0.00735789
-0.0055758
-0.00208929
0.00289748
0.00875454
0.0147388
0.0200382
0.0235269
0.024463
0.0223872
0.0171843
0.00910055
-0.00128578
-0.0131388
-0.0254702
-0.037266
-0.0476028
-0.0557456
-0.061215
-0.0638128
-0.0636104
-0.0609118
-0.0561913
-0.0500386
-0.0430566
-0.0356932
-0.028359
-0.0216261
-0.0156314
-0.0110978
0.0347242
0.046544
0.058858
0.0701113
0.0793893
0.0853573
0.08714
0.0841479
0.0762573
0.0635036
0.0463776
0.0258019
0.00306964
-0.0202719
-0.0425677
-0.0622193
-0.0778478
-0.0884355
-0.0934247
-0.092772
-0.0869346
-0.0768013
-0.0635812
-0.0486643
-0.033478
-0.0195805
-0.00788747
0.00100077
0.00673101
0.00946025
0.00927713
0.0691406
0.0907495
0.111496
0.128836
0.141319
0.147092
0.145266
0.135535
0.118696
0.0954974
0.0672553
0.0357501
0.00309591
-0.0284456
-0.0566654
-0.0796098
-0.0957599
-0.104178
-0.104596
-0.0974436
-0.0837946
-0.0652467
-0.0437467
-0.0213923
-0.000220223
0.0174746
0.0305151
0.0382686
0.0407061
0.0383328
0.0320528
0.0879086
0.114725
0.139884
0.160304
0.174289
0.179746
0.175875
0.162623
0.14138
0.113358
0.0803749
0.0446991
0.00887464
-0.0245046
-0.0530208
-0.0746489
-0.0879369
-0.0921444
-0.0873124
-0.0742712
-0.054554
-0.0302419
-0.00374838
0.0224135
0.0458832
0.0639081
0.0752569
0.0793977
0.0766821
0.0679683
0.0548674
0.0865872
0.112698
0.137034
0.156519
0.169544
0.174094
0.169532
0.155982
0.134975
0.10786
0.0765608
0.0434014
0.010926
-0.0183335
-0.0420801
-0.0584617
-0.0662408
-0.0649196
-0.0547951
-0.0369533
-0.01317
0.0142586
0.0427452
0.0696542
0.0925672
0.108556
0.116481
0.115976
0.107758
0.0929748
0.0737499
0.0658531
0.0854456
0.103709
0.118058
0.127269
0.129682
0.124879
0.113074
0.095507
0.0733686
0.0483333
0.0224142
-0.00219947
-0.0233468
-0.039093
-0.0479162
-0.0488627
-0.041659
-0.0267584
-0.00533562
0.0208085
0.0494072
0.0779488
0.103908
0.125005
0.138375
0.143029
0.138756
0.126545
0.107709
0.0846376
0.0324274
0.0416122
0.0502099
0.05643
0.0596034
0.0586102
0.0532602
0.0437991
0.0308992
0.0153993
-0.00149026
-0.0182898
-0.0333708
-0.0451129
-0.0520629
-0.05309
-0.0475247
-0.0352597
-0.016796
0.00675354
0.0337406
0.0621159
0.0896245
0.114011
0.133251
0.144741
0.147629
0.141796
0.128359
0.108635
0.0850211
-0.00383369
-0.00593169
-0.00789592
-0.01062
-0.0141986
-0.0191658
-0.0255154
-0.0330115
-0.041621
-0.0509133
-0.0602029
-0.0685992
-0.0750759
-0.0785765
-0.0781292
-0.0729684
-0.0626578
-0.0471809
-0.026992
-0.00303249
0.0233184
0.0503442
0.0761503
0.0988337
0.116682
0.127473
0.130455
0.125521
0.113758
0.0963358
0.0754404
-0.0313196
-0.04194
-0.051894
-0.0613915
-0.0700786
-0.0780792
-0.0851826
-0.0911984
-0.0965962
-0.101288
-0.105028
-0.107425
-0.107958
-0.106045
-0.101112
-0.0926821
-0.0804826
-0.0645227
-0.0451476
-0.0230654
0.000674601
0.0247482
0.047676
0.0679533
0.084209
0.0946788
0.0986891
0.0961223
0.0878795
0.074882
0.0589041
-0.0425839
-0.0567139
-0.0699904
-0.0821932
-0.0927937
-0.101545
-0.108336
-0.112992
-0.116199
-0.118079
-0.118668
-0.1179
-0.115601
-0.111509
-0.105326
-0.096774
-0.0856766
-0.0720267
-0.0560351
-0.0381632
-0.0191204
0.000171626
0.0186601
0.0352519
0.0489305
0.05842
0.0631647
0.0629641
0.0585037
0.0504042
0.0399558
-0.0379902
-0.0505053
-0.0623215
-0.0730404
-0.0822106
-0.0894491
-0.0946821
-0.0978761
-0.0996276
-0.100123
-0.0995102
-0.097869
-0.0951988
-0.091419
-0.0863927
-0.0799654
-0.0720197
-0.0625235
-0.0515694
-0.0394038
-0.0264344
-0.0132162
-0.000403746
0.0113047
0.0212426
0.0286107
0.0329727
0.0341271
0.0325182
0.0284836
0.0228475
0.0194661
0.0235845
0.026268
0.026913
0.0256786
0.0228858
0.0191445
0.0152171
0.0122597
0.0109748
0.0118018
0.0148123
0.0196752
0.0256744
0.031789
0.0368232
0.039577
0.0390198
0.0344515
0.0256349
0.0128691
-0.00300299
-0.020685
-0.038563
-0.0549226
-0.0675525
-0.075084
-0.076577
-0.072593
-0.0635705
-0.0515134
0.00336251
0.00172787
-0.00176835
-0.00700883
-0.0135394
-0.020544
-0.0269346
-0.0317071
-0.0336133
-0.0319148
-0.0263353
-0.017163
-0.00527581
0.00792075
0.0206399
0.0309222
0.0368937
0.0370263
0.0303685
0.0167338
-0.00321287
-0.0279698
-0.055354
-0.0827269
-0.107332
-0.125507
-0.135333
-0.135531
-0.126847
-0.110148
-0.088328
-0.0368357
-0.0512639
-0.066942
-0.0827541
-0.0975231
-0.109718
-0.118044
-0.121187
-0.118558
-0.109807
-0.0952463
-0.0759025
-0.0534912
-0.0302835
-0.00889017
0.00802347
0.0180551
0.0193799
0.011017
-0.00696313
-0.0333686
-0.0659464
-0.101609
-0.136748
-0.167675
-0.189447
-0.19968
-0.197046
-0.182464
-0.157291
-0.125202
-0.0923066
-0.123401
-0.154125
-0.182172
-0.205448
-0.221923
-0.229964
-0.228261
-0.217511
-0.198151
-0.171424
-0.139348
-0.104601
-0.0703147
-0.0397879
-0.0161544
-0.0020521
0.000697348
-0.00865952
-0.0296254
-0.0604316
-0.0981552
-0.139006
-0.178706
-0.212977
-0.236107
-0.245598
-0.240095
-0.220745
-0.189307
-0.149883
-0.141552
-0.186874
-0.229561
-0.2664
-0.294572
-0.311728
-0.316227
-0.30701
-0.286232
-0.255271
-0.216355
-0.172431
-0.126963
-0.0836585
-0.0461505
-0.0176567
-0.00068492
0.00324071
-0.0062266
-0.0281364
-0.0602836
-0.0993772
-0.141358
-0.181793
-0.216354
-0.23932
-0.24839
-0.242398
-0.222485
-0.190555
-0.150576
-0.160381
-0.210187
-0.255399
-0.29264
-0.318869
-0.331856
-0.33021
-0.313281
-0.284209
-0.245054
-0.198647
-0.148386
-0.0979875
-0.0511964
-0.0114755
0.0182955
0.036041
0.0406875
0.0322793
0.0120255
-0.0177907
-0.054003
-0.0928612
-0.130383
-0.162761
-0.185102
-0.195511
-0.193046
-0.1786
-0.153836
-0.121974
-0.134641
-0.175206
-0.210554
-0.238011
-0.255017
-0.259956
-0.251887
-0.230561
-0.199109
-0.159649
-0.114865
-0.0678117
-0.0216778
0.0204549
0.0558553
0.082362
0.0985194
0.10369
0.0980999
0.0828368
0.0597457
0.0312667
0.000209825
-0.0304993
-0.0580962
-0.0792351
-0.0925426
-0.097269
-0.0937906
-0.0831376
-0.0672168
-0.0654132
-0.084173
-0.098909
-0.108609
-0.111857
-0.108038
-0.0967149
-0.0778264
-0.0532708
-0.0243934
0.00717929
0.0396442
0.0711558
0.0999561
0.124504
0.143587
0.15638
0.162492
0.161981
0.155339
0.143435
0.127434
0.108692
0.0886393
0.0686635
0.0501808
0.0340299
0.0208574
0.010977
0.00426649
0.000438081
0.0296424
0.0392819
0.0499661
0.0604178
0.0705269
0.0797526
0.0881721
0.0960107
0.103632
0.111223
0.118994
0.127109
0.135658
0.144622
0.153865
0.163136
0.17208
0.18026
0.187185
0.19234
0.195225
0.195396
0.192506
0.18634
0.176848
0.163588
0.146923
0.127487
0.106312
0.0842324
0.0625544
0.123651
0.159898
0.19307
0.219514
0.237632
0.245888
0.244276
0.233581
0.216909
0.196416
0.174523
0.153642
0.135948
0.123173
0.116467
0.116313
0.122533
0.134326
0.150363
0.168908
0.187981
0.205537
0.219647
0.22866
0.231352
0.225949
0.212481
0.191634
0.165033
0.134269
0.101867
0.190101
0.243486
0.289612
0.322977
0.340942
0.341402
0.324599
0.292156
0.249677
0.20122
0.151241
0.104108
0.063706
0.0330872
0.0142371
0.00795492
0.0138878
0.030631
0.055919
0.0868624
0.120236
0.152773
0.181458
0.203751
0.21779
0.221328
0.214268
0.197403
0.172701
0.142131
0.108804
0.211918
0.268675
0.315099
0.344844
0.354952
0.343305
0.310654
0.259495
0.197015
0.1286
0.060013
-0.00322985
-0.0563588
-0.0957798
-0.119336
-0.126414
-0.117847
-0.0957323
-0.0631374
-0.0237527
0.0184887
0.0597808
0.0967692
0.12679
0.148036
0.158726
0.158896
0.149499
0.132546
0.109954
0.0846888
0.186318
0.232929
0.268127
0.285933
0.283828
0.260212
0.216426
0.155601
0.085178
0.0109295
-0.0611548
-0.125521
-0.177568
-0.21407
-0.233395
-0.235556
-0.222039
-0.195536
-0.159574
-0.118091
-0.0750198
-0.0339044
0.00238841
0.031847
0.0533902
0.0664642
0.0715056
0.0696726
0.0627501
0.0522482
0.0403412
0.124154
0.151256
0.168165
0.170347
0.156301
0.125289
0.0791231
0.0211031
-0.0424307
-0.106369
-0.165623
-0.215703
-0.253159
-0.27591
-0.283379
-0.276451
-0.257244
-0.22878
-0.194581
-0.158222
-0.12294
-0.0913085
-0.0650329
-0.0448854
-0.0307597
-0.0215916
-0.0163553
-0.013664
-0.0121449
-0.0108895
-0.00893861
0.0449361
0.0493658
0.0467506
0.0346602
0.0128588
-0.0184469
-0.0572619
-0.100656
-0.144419
-0.184957
-0.218943
-0.243731
-0.25765
-0.260193
-0.252037
-0.234916
-0.211362
-0.184354
-0.156938
-0.131819
-0.111046
-0.0957863
-0.0862432
-0.0817149
-0.0807823
-0.0808319
-0.0802104
-0.0773397
-0.0713456
-0.0619428
-0.0495139
-0.0299454
-0.0452754
-0.0634944
-0.0848451
-0.108412
-0.133236
-0.15749
-0.179061
-0.196315
-0.207607
-0.21173
-0.208131
-0.197027
-0.17944
-0.157119
-0.132352
-0.107718
-0.0857682
-0.06871
-0.0580969
-0.0546153
-0.0579771
-0.0669591
-0.0795619
-0.0932997
-0.104485
-0.110996
-0.111182
-0.104674
-0.0916977
-0.0738261
-0.0831276
-0.110967
-0.137688
-0.161827
-0.181728
-0.196067
-0.203493
-0.202936
-0.195135
-0.180304
-0.159148
-0.132878
-0.103176
-0.0721107
-0.0419919
-0.015178
0.00612899
0.0201176
0.0255859
0.0221348
0.0102693
-0.00859636
-0.0322643
-0.057966
-0.0826951
-0.102416
-0.114868
-0.118531
-0.113489
-0.100306
-0.0813877
-0.104719
-0.135879
-0.16308
-0.184044
-0.196937
-0.200544
-0.194177
-0.177762
-0.15367
-0.123434
-0.0889842
-0.0525241
-0.0163984
0.0170496
0.0456301
0.067459
0.0810767
0.08558
0.0807266
0.0670161
0.0457009
0.0187281
-0.0114178
-0.0419217
-0.0699446
-0.0918754
-0.105733
-0.110357
-0.106204
-0.0939953
-0.0765144
-0.093071
-0.118647
-0.139175
-0.152593
-0.157466
-0.153117
-0.139559
-0.117448
-0.0897521
-0.0585197
-0.0259788
0.00564278
0.0342702
0.0581113
0.0757551
0.0862414
0.0890778
0.0842614
0.0722819
0.0541146
0.0311828
0.00528497
-0.0215331
-0.0471226
-0.0694516
-0.0859683
-0.0953485
-0.096973
-0.0915717
-0.0798601
-0.0645346
-0.0536646
-0.0666746
-0.075302
-0.0786114
-0.07601
-0.0676575
-0.0541783
-0.0365844
-0.0174062
0.00160782
0.0188211
0.0328599
0.0427146
0.0477921
0.0479174
0.0432971
0.0344365
0.0220664
0.0070719
-0.0095615
-0.0267903
-0.0435502
-0.0588079
-0.0716013
-0.0811344
-0.0862937
-0.0866253
-0.0821176
-0.0736442
-0.0617757
-0.0487176
0.00287233
0.00645787
0.0125054
0.0202591
0.0292471
0.0383559
0.0465209
0.0527282
0.0556553
0.0544555
0.0486981
0.038422
0.0241375
0.00676111
-0.0124979
-0.0322809
-0.0512433
-0.0681951
-0.0822085
-0.0926802
-0.0993383
-0.102211
-0.101574
-0.0978709
-0.0916736
-0.0833954
-0.0734398
-0.062319
-0.0508931
-0.0394571
-0.0294273
0.0630433
0.0837397
0.104506
0.122788
0.137077
0.145383
0.146401
0.139362
0.124488
0.102095
0.0731657
0.0392803
0.00249828
-0.0348286
-0.070278
-0.101587
-0.126868
-0.144779
-0.15464
-0.156468
-0.150928
-0.139218
-0.122912
-0.103768
-0.0835669
-0.0640856
-0.0463669
-0.0312355
-0.019365
-0.0106562
-0.00556286
0.112913
0.147591
0.180255
0.206892
0.225212
0.2326
0.227697
0.210085
0.18141
0.14305
0.0972098
0.046732
-0.00512238
-0.0549619
-0.0995632
-0.136156
-0.162658
-0.177851
-0.181473
-0.174221
-0.157637
-0.133917
-0.105672
-0.0756481
-0.0464776
-0.020969
-0.000472736
0.0141391
0.0225376
0.0253026
0.0229813
0.140898
0.183261
0.222371
0.25342
0.273758
0.280489
0.272377
0.249348
0.213975
0.168337
0.115382
0.0586701
0.00207989
-0.0505295
-0.0956549
-0.130451
-0.15296
-0.162273
-0.158589
-0.143185
-0.118252
-0.0866577
-0.0516451
-0.0165153
0.0156806
0.0415071
0.0596278
0.0693515
0.0707978
0.0650477
0.0535551
0.140563
0.182399
0.220759
0.250842
0.270112
0.275778
0.266857
0.243558
0.2087
0.164579
0.114311
0.0615361
0.0101218
-0.0361871
-0.0740964
-0.10105
-0.115439
-0.116737
-0.105537
-0.0834948
-0.0531444
-0.0176401
0.0195596
0.0550229
0.0856647
0.107818
0.120371
0.122932
0.116088
0.101351
0.0808715
0.112552
0.145672
0.175951
0.199316
0.213763
0.216938
0.208211
0.187991
0.158681
0.122359
0.081787
0.0401482
0.000781744
-0.0331318
-0.058857
-0.0743545
-0.0784635
-0.0710167
-0.0528577
-0.0257845
0.00762929
0.0442826
0.0808484
0.114085
0.14114
0.158446
0.165171
0.161213
0.147546
0.125961
0.099016
0.065816
0.0845655
0.101575
0.113961
0.120509
0.119512
0.110727
0.0946918
0.0729533
0.0470803
0.0191547
-0.00842395
-0.0331449
-0.0526331
-0.0648768
-0.0684288
-0.0625652
-0.0473817
-0.0238096
0.00642776
0.0409661
0.0770124
0.111609
0.141906
0.165433
0.178963
0.181893
0.174296
0.157387
0.133017
0.103837
0.0137341
0.016451
0.0185747
0.0185509
0.0159927
0.00991027
0.000393904
-0.0119596
-0.0265986
-0.0425679
-0.058569
-0.0730771
-0.0844707
-0.0912061
-0.0919797
-0.0858789
-0.07252
-0.0521333
-0.0255868
0.00563461
0.0395392
0.0737903
0.105922
0.133563
0.154661
0.166483
0.168534
0.160919
0.144907
0.1222
0.0952493
-0.0273693
-0.0372765
-0.0468533
-0.0566074
-0.0662781
-0.0763565
-0.0864217
-0.0959056
-0.105084
-0.113543
-0.120664
-0.125674
-0.127707
-0.125913
-0.119556
-0.108125
-0.0914498
-0.0697751
-0.0437955
-0.0146563
0.0161118
0.0467038
0.0752023
0.0997482
0.118719
0.12995
0.132976
0.127867
0.115731
0.0979581
0.0765268
-0.047245
-0.0632261
-0.0784315
-0.0927021
-0.10547
-0.116693
-0.126094
-0.133144
-0.138554
-0.142277
-0.144161
-0.143952
-0.141306
-0.13584
-0.127198
-0.115115
-0.0995154
-0.0805733
-0.0587545
-0.0348324
-0.00985887
0.0148999
0.0380752
0.0583145
0.0744117
0.0847982
0.0890499
0.0870667
0.0797428
0.0680662
0.0534466
-0.0455096
-0.0606087
-0.074976
-0.0881969
-0.0996956
-0.109134
-0.116323
-0.121042
-0.123969
-0.125229
-0.124899
-0.122987
-0.119431
-0.114104
-0.106855
-0.0975498
-0.0861345
-0.0726876
-0.0574549
-0.0408728
-0.0235623
-0.00629952
0.0100515
0.0246134
0.0365803
0.044961
0.0493536
0.0495829
0.046276
0.0400321
0.0316981
0.0442319
0.0550688
0.0636465
0.0686404
0.0700176
0.0679591
0.0633163
0.0572239
0.0516567
0.0478304
0.0466342
0.0484515
0.0530857
0.0597598
0.0672108
0.0738599
0.0780476
0.0782769
0.0734443
0.0630345
0.0472401
0.0269879
0.00383856
-0.0201848
-0.0428706
-0.0614182
-0.073866
-0.079031
-0.0773585
-0.0692428
-0.0570194
0.0333366
0.0396842
0.0429323
0.0424142
0.0383497
0.031452
0.0232156
0.0150747
0.00938576
0.00756961
0.0104854
0.0182312
0.0300692
0.0444665
0.0592679
0.0719602
0.0800223
0.0812817
0.0742426
0.0583594
0.0341845
0.00337451
-0.0314823
-0.0671454
-0.100141
-0.125924
-0.141757
-0.146097
-0.139528
-0.122934
-0.099687
-0.00956
-0.017032
-0.0271165
-0.0394082
-0.0529088
-0.0661473
-0.077344
-0.0846675
-0.0864059
-0.081497
-0.0696662
-0.0515771
-0.0288563
-0.00397572
0.0199974
0.0397527
0.0521572
0.0546785
0.0457567
0.0251062
-0.00615162
-0.045532
-0.0894366
-0.133537
-0.173305
-0.202728
-0.218501
-0.219124
-0.205336
-0.178618
-0.143237
-0.0751002
-0.10213
-0.129937
-0.156754
-0.180507
-0.199318
-0.210858
-0.213383
-0.206726
-0.190742
-0.16622
-0.134933
-0.099555
-0.0634665
-0.0304274
-0.00417869
0.0119812
0.0156137
0.00548527
-0.0181689
-0.053573
-0.0975232
-0.1457
-0.193117
-0.234703
-0.263681
-0.276725
-0.272478
-0.251927
-0.217044
-0.17258
-0.136662
-0.181219
-0.223846
-0.261611
-0.291576
-0.31162
-0.319366
-0.313498
-0.295732
-0.267114
-0.229634
-0.186149
-0.140188
-0.0956832
-0.0566173
-0.0266296
-0.00866216
-0.00462047
-0.0151207
-0.0393194
-0.0749284
-0.118391
-0.165222
-0.210456
-0.249198
-0.274922
-0.284758
-0.277747
-0.254916
-0.218432
-0.172844
-0.163369
-0.214205
-0.260634
-0.2994
-0.3273
-0.342447
-0.342821
-0.327747
-0.300335
-0.26257
-0.217241
-0.167756
-0.117884
-0.0714684
-0.0320942
-0.00276505
0.0143358
0.0180629
0.00843908
-0.0132847
-0.0447183
-0.0825382
-0.122797
-0.161302
-0.194049
-0.215813
-0.224489
-0.219518
-0.201717
-0.172971
-0.136856
-0.13712
-0.177983
-0.213425
-0.240907
-0.25781
-0.262984
-0.255127
-0.234172
-0.203465
-0.165215
-0.12215
-0.0773128
-0.0338144
0.0053976
0.0377832
0.0614125
0.075074
0.0783602
0.0716869
0.0562647
0.033981
0.00722412
-0.0213317
-0.0489691
-0.0731789
-0.0908927
-0.100909
-0.102941
-0.0973083
-0.0851155
-0.0682611
-0.0582363
-0.074031
-0.0854966
-0.0919788
-0.0922368
-0.0862237
-0.0735101
-0.0543228
-0.03075
-0.00422972
0.0236508
0.0512703
0.0771086
0.0998486
0.118475
0.132335
0.141131
0.144911
0.144019
0.139041
0.130726
0.119901
0.107406
0.0940326
0.0804769
0.0672727
0.0547717
0.0431907
0.0329259
0.0240022
0.0165696
0.0521332
0.0693284
0.0876357
0.105059
0.121017
0.134353
0.144769
0.152241
0.157227
0.159993
0.161026
0.16096
0.160519
0.160432
0.161366
0.163849
0.168201
0.174472
0.182416
0.191465
0.200763
0.209224
0.215642
0.218809
0.217664
0.210428
0.196798
0.177103
0.15253
0.124301
0.0945535
0.161503
0.209511
0.254008
0.290248
0.3159
0.328849
0.328452
0.315432
0.293429
0.26497
0.23308
0.200958
0.171694
0.14799
0.131938
0.124848
0.127177
0.138495
0.157534
0.18228
0.210145
0.238195
0.263418
0.28299
0.294545
0.294801
0.28311
0.26004
0.227476
0.187588
0.143998
0.237897
0.305359
0.364533
0.40857
0.433978
0.438176
0.4207
0.383395
0.332841
0.273791
0.211602
0.151672
0.0989584
0.0575404
0.0302942
0.0186975
0.0228117
0.0413407
0.0718079
0.110797
0.154282
0.19799
0.237783
0.269996
0.291742
0.299416
0.292423
0.271638
0.239409
0.198383
0.152835
0.261013
0.331557
0.390276
0.429448
0.445312
0.435447
0.400024
0.342055
0.270007
0.190195
0.109452
0.0344
-0.0291565
-0.0767446
-0.105566
-0.114651
-0.104774
-0.0782698
-0.0387076
0.0094979
0.0615359
0.112649
0.158543
0.195708
0.221657
0.233712
0.231746
0.216984
0.191928
0.159161
0.122672
0.22805
0.285819
0.330537
0.355062
0.356289
0.33251
0.284761
0.216902
0.137723
0.0539915
-0.0272623
-0.0995165
-0.157381
-0.197088
-0.216767
-0.216506
-0.198142
-0.164951
-0.121198
-0.0716392
-0.0210126
0.0264156
0.0672097
0.0989796
0.120478
0.130918
0.131004
0.122334
0.107263
0.0878679
0.0670406
0.152638
0.186951
0.209678
0.215528
0.202728
0.170606
0.121006
0.0580185
-0.0108497
-0.0796218
-0.142401
-0.194059
-0.23076
-0.250339
-0.252448
-0.23849
-0.211309
-0.174777
-0.133281
-0.0911812
-0.052315
-0.0196161
0.00512384
0.0213138
0.0294705
0.0311371
0.0280591
0.0221955
0.0155281
0.00937522
0.00503486
0.0585092
0.0661703
0.0659664
0.0551995
0.0336849
0.00180384
-0.038118
-0.08246
-0.126219
-0.16522
-0.195701
-0.214812
-0.220962
-0.214023
-0.195329
-0.167486
-0.134007
-0.0988579
-0.0659467
-0.0386118
-0.0192156
-0.00887859
-0.00740099
-0.0133694
-0.0244361
-0.0368991
-0.0480068
-0.0555154
-0.0579593
-0.0548036
-0.0464689
-0.0288625
-0.0439127
-0.0619466
-0.083038
-0.105977
-0.129604
-0.151575
-0.169314
-0.180845
-0.184296
-0.178433
-0.162922
-0.13846
-0.106807
-0.0706503
-0.0333404
0.0014732
0.030271
0.0501028
0.0590005
0.0562627
0.0425815
0.0199719
-0.00846767
-0.0389687
-0.0663643
-0.0872019
-0.0991318
-0.101262
-0.0937076
-0.0783885
-0.0893222
-0.118245
-0.1455
-0.169184
-0.187237
-0.198195
-0.200146
-0.191839
-0.174064
-0.147129
-0.112034
-0.0704984
-0.0249197
0.0217358
0.0661437
0.104897
0.134806
0.153243
0.15846
0.149867
0.128191
0.0954796
0.0549281
0.010576
-0.0331613
-0.0706408
-0.0982353
-0.113761
-0.116896
-0.1082
-0.090641
-0.111887
-0.143857
-0.170967
-0.190448
-0.200114
-0.198732
-0.18514
-0.159334
-0.123968
-0.0808593
-0.0323787
0.0186803
0.0692518
0.116168
0.156368
0.187116
0.206194
0.212116
0.204309
0.183261
0.150565
0.108861
0.0616292
0.0128939
-0.0332017
-0.071549
-0.0989581
-0.113715
-0.116024
-0.106683
-0.0891617
-0.09529
-0.120062
-0.138929
-0.149526
-0.150241
-0.140545
-0.120153
-0.0899403
-0.0531752
-0.0121989
0.0303868
0.0719104
0.109797
0.14171
0.165685
0.180235
0.184417
0.1779
0.161027
0.134851
0.101129
0.0622475
0.0210606
-0.0193206
-0.0558437
-0.0847274
-0.103741
-0.111878
-0.109786
-0.0983257
-0.0809425
-0.0463635
-0.0560291
-0.0608857
-0.0600586
-0.0530392
-0.0403063
-0.0224022
-0.000575882
0.0225364
0.0450591
0.0652385
0.0815879
0.0929817
0.0986937
0.0984027
0.0921611
0.080329
0.0635293
0.0426104
0.0186326
-0.00714541
-0.0332906
-0.0582613
-0.0804818
-0.0985032
-0.110305
-0.114892
-0.112044
-0.102721
-0.0877016
-0.069964
0.0224033
0.032378
0.0445566
0.0576677
0.0708606
0.082558
0.0915711
0.096746
0.0970046
0.0916627
0.0805442
0.0640004
0.0428733
0.0183865
-0.00799863
-0.034748
-0.0604208
-0.0837975
-0.103961
-0.120317
-0.132561
-0.140617
-0.144575
-0.144613
-0.141
-0.133524
-0.122385
-0.108021
-0.0915272
-0.0734539
-0.0559975
0.0954056
0.125631
0.154919
0.179751
0.197972
0.207026
0.205324
0.192124
0.168312
0.134698
0.0929109
0.0452576
-0.00546439
-0.0562281
-0.104055
-0.146287
-0.180806
-0.206206
-0.221869
-0.227951
-0.225282
-0.215195
-0.199339
-0.179475
-0.157328
-0.134231
-0.111261
-0.0892072
-0.0690921
-0.051092
-0.0364307
0.156509
0.203503
0.246845
0.281207
0.303456
0.310356
0.30018
0.272721
0.230677
0.176214
0.112505
0.0434348
-0.026718
-0.0936593
-0.153454
-0.202854
-0.239541
-0.262286
-0.270997
-0.266654
-0.251127
-0.226914
-0.196857
-0.163841
-0.130549
-0.0994137
-0.0719104
-0.0488078
-0.0308457
-0.0177017
-0.0095648
0.192079
0.248705
0.300054
0.339806
0.364377
0.370241
0.355798
0.321336
0.27076
0.207136
0.134571
0.0578289
-0.0180779
-0.0883293
-0.14871
-0.195953
-0.227959
-0.24393
-0.244367
-0.230958
-0.206327
-0.173718
-0.136649
-0.0985625
-0.0625359
-0.0316
-0.00717436
0.0103143
0.0205692
0.0244736
0.0228081
0.194168
0.250938
0.302105
0.341338
0.36519
0.370272
0.355326
0.321016
0.271615
0.210485
0.141942
0.0708324
0.00211127
-0.0596065
-0.110443
-0.147571
-0.1694
-0.175668
-0.167392
-0.14673
-0.116693
-0.080809
-0.0427611
-0.00603588
0.0263693
0.0512691
0.0676036
0.0754476
0.0750185
0.0677223
0.0551292
0.16292
0.210146
0.252549
0.284664
0.303707
0.306786
0.293153
0.263699
0.222246
0.171897
0.116528
0.0603992
0.00777072
-0.0374981
-0.0722898
-0.0944895
-0.10313
-0.0984465
-0.081805
-0.0555484
-0.022723
0.0132526
0.0489206
0.081109
0.107197
0.124173
0.131424
0.129494
0.119079
0.101964
0.0802353
0.108133
0.138822
0.166085
0.185916
0.196514
0.195709
0.183331
0.160376
0.129636
0.0935775
0.0552244
0.0178409
-0.015367
-0.0415755
-0.0586042
-0.0651132
-0.060715
-0.0460025
-0.0224761
0.0075974
0.0414226
0.0759629
0.108227
0.135544
0.155788
0.166327
0.166909
0.158363
0.141728
0.118943
0.0923059
0.0450472
0.0566301
0.0663186
0.0717434
0.0721462
0.0661589
0.0541168
0.0370129
0.0163849
-0.00608867
-0.0283855
-0.0483497
-0.0638956
-0.0732418
-0.0750889
-0.0687578
-0.0542788
-0.0324087
-0.00457295
0.0272423
0.0606754
0.0932142
0.122426
0.146174
0.1628
0.170135
0.168106
0.157575
0.139739
0.116445
0.089895
-0.00741623
-0.0116723
-0.0165076
-0.022968
-0.0309636
-0.0412773
-0.0531375
-0.0656675
-0.0784433
-0.0905198
-0.100772
-0.108012
-0.111103
-0.109109
-0.101403
-0.0877525
-0.068397
-0.0440643
-0.0159358
0.0144213
0.0451805
0.0744137
0.100262
0.121099
0.135665
0.14227
0.140855
0.132152
0.117268
0.0977605
0.0754228
-0.0365165
-0.0495037
-0.0622956
-0.0750017
-0.0871243
-0.0988406
-0.109514
-0.118395
-0.125756
-0.131201
-0.13426
-0.134433
-0.13124
-0.124297
-0.11338
-0.0984756
-0.0798437
-0.0580384
-0.0338973
-0.0085098
0.0168555
0.0408474
0.0621489
0.0795899
0.0922413
0.0988775
0.0993994
0.0942035
0.0842219
0.0705833
0.054569
-0.0410881
-0.054985
-0.0684712
-0.0812422
-0.0927278
-0.102722
-0.110767
-0.116502
-0.120379
-0.122324
-0.122238
-0.120006
-0.115505
-0.108636
-0.09935
-0.0876866
-0.0738153
-0.0580602
-0.0409064
-0.0229925
-0.00507958
0.0119976
0.0274018
0.0403641
0.0502455
0.0562551
0.0581983
0.0562013
0.0509453
0.043142