# vtk DataFile Version 2.0
Func
ASCII
DATASET RECTILINEAR_GRID
DIMENSIONS 31 31 31
X_COORDINATES 31 double
-9.67742
-9.03226
-8.3871
-7.74194
-7.09677
-6.45161
-5.80645
-5.16129
-4.51613
-3.87097
-3.22581
-2.58065
-1.93548
-1.29032
-0.645161
0
0.645161
1.29032
1.93548
2.58065
3.22581
3.87097
4.51613
5.16129
5.80645
6.45161
7.09677
7.74194
8.3871
9.03226
9.67742
Y_COORDINATES 31 double
-9.67742
-9.03226
-8.3871
-7.74194
-7.09677
-6.45161
-5.80645
-5.16129
-4.51613
-3.87097
-3.22581
-2.58065
-1.93548
-1.29032
-0.645161
0
0.645161
1.29032
1.93548
2.58065
3.22581
3.87097
4.51613
5.16129
5.80645
6.45161
7.09677
7.74194
8.3871
9.03226
9.67742
Z_COORDINATES 31 double
-9.67742
-9.03226
-8.3871
-7.74194
-7.09677
-6.45161
-5.80645
-5.16129
-4.51613
-3.87097
-3.22581
-2.58065
-1.93548
-1.29032
-0.645161
0
0.645161
1.29032
1.93548
2.58065
3.22581
3.87097
4.51613
5.16129
5.80645
6.45161
7.09677
7.74194
8.3871
9.03226
9.67742
POINT_DATA 29791
SCALARS data double 1
LOOKUP_TABLE default
0.0294783
0.0362909
0.0412445
0.0431829
0.0418669
0.0370674
0.0292728
0.0192468
0.00833053
-0.00243113
-0.012031
-0.0196285
-0.0246317
-0.026758
-0.0260452
-0.0228241
-0.0176558
-0.01125
-0.0043732
0.00224416
0.00798739
0.0124168
0.0152979
0.016603
0.0164809
0.0152111
0.0131564
0.0107021
0.00818371
0.00587252
0.0038219
0.0446196
0.0546155
0.0614334
0.0634101
0.0601873
0.0515747
0.0383635
0.0217723
0.00400661
-0.0132396
-0.0283599
-0.0400412
-0.0473957
-0.0500512
-0.0481612
-0.042354
-0.0336172
-0.0231577
-0.0122434
-0.00204731
0.00648387
0.0127222
0.0163987
0.0175954
0.0166786
0.0142669
0.0110516
0.0076733
0.0046135
0.0022973
0.000526089
0.0574106
0.0697415
0.0775662
0.0787983
0.0729887
0.0600268
0.0409679
0.0175884
-0.00709166
-0.0307461
-0.0512049
-0.066732
-0.0762062
-0.0792338
-0.0761527
-0.0679468
-0.0560727
-0.0422516
-0.0282404
-0.0156095
-0.00556036
0.00119652
0.00448022
0.00461123
0.0022921
-0.00134545
-0.00523396
-0.00842812
-0.010435
-0.0108003
-0.0101163
0.064694
0.0779172
0.085497
0.0850803
0.0762125
0.0588011
0.0343087
0.00498222
-0.0255242
-0.0543764
-0.0789793
-0.0973141
-0.108153
-0.111183
-0.106998
-0.0969654
-0.0829976
-0.0672752
-0.0519514
-0.0388683
-0.0293333
-0.0239788
-0.0227387
-0.0249106
-0.0293392
-0.034221
-0.0380753
-0.0396941
-0.0387124
-0.0347862
-0.02908
0.0648015
0.0771264
0.0829673
0.0800207
0.0679004
0.0466348
0.0179945
-0.0154188
-0.0495853
-0.0813726
-0.107981
-0.127311
-0.138195
-0.14052
-0.135186
-0.123943
-0.109093
-0.0931647
-0.0785591
-0.0672193
-0.0603807
-0.0584282
-0.0609005
-0.0665979
-0.0738334
-0.0800387
-0.0833362
-0.0823051
-0.0768417
-0.0668366
-0.0540824
0.0578493
0.0675986
0.0705275
0.0646043
0.049595
0.0257024
-0.0050836
-0.0399738
-0.0748987
-0.106677
-0.132551
-0.150558
-0.159755
-0.160329
-0.153519
-0.14141
-0.1266
-0.111822
-0.0995611
-0.0916923
-0.0892243
-0.092168
-0.0995783
-0.109711
-0.120337
-0.128138
-0.130895
-0.127044
-0.1168
-0.10036
-0.0801224
0.0445816
0.0504319
0.0497468
0.0409635
0.024068
-0.000516229
-0.0307157
-0.0637676
-0.0958933
-0.124139
-0.146052
-0.160021
-0.165479
-0.162979
-0.154085
-0.141134
-0.126877
-0.114087
-0.105157
-0.101743
-0.104513
-0.113046
-0.125908
-0.140857
-0.155205
-0.165036
-0.167901
-0.162165
-0.148336
-0.126908
-0.100766
0.0273834
0.0288085
0.0246009
0.0138095
-0.00333259
-0.0261674
-0.0527052
-0.0804392
-0.10619
-0.12749
-0.142415
-0.149878
-0.149781
-0.143049
-0.131501
-0.117592
-0.104059
-0.0935302
-0.0881501
-0.0892403
-0.0970848
-0.110857
-0.128733
-0.148126
-0.166066
-0.178342
-0.182419
-0.176678
-0.161803
-0.138498
-0.109867
0.00880811
0.00605188
-0.000895548
-0.0122956
-0.0276857
-0.0462027
-0.0661163
-0.0854024
-0.101731
-0.11333
-0.118976
-0.118203
-0.111406
-0.0998253
-0.0854055
-0.0705426
-0.0577601
-0.0493612
-0.0471001
-0.0518967
-0.063669
-0.0812954
-0.102752
-0.125345
-0.146092
-0.16089
-0.16731
-0.163834
-0.151163
-0.130056
-0.103491
-0.00869006
-0.0147679
-0.0232416
-0.0336716
-0.045428
-0.0575118
-0.0686117
-0.077369
-0.0824605
-0.0829398
-0.0783627
-0.0689037
-0.0553917
-0.0392601
-0.0224015
-0.00695065
0.00498199
0.0115866
0.0116055
0.0045421
-0.00923001
-0.0284649
-0.0511825
-0.0748843
-0.0968771
-0.113622
-0.123
-0.123686
-0.116232
-0.101285
-0.0813307
-0.0234095
-0.0316735
-0.0404282
-0.0485904
-0.0554537
-0.0599817
-0.0613954
-0.0591125
-0.0528648
-0.0425663
-0.0285362
-0.0115159
0.00735613
0.026625
0.0446465
0.0597492
0.070417
0.075469
0.0742122
0.0665576
0.0530654
0.0349161
0.0137902
-0.00830248
-0.0292597
-0.046513
-0.0584479
-0.0640318
-0.0635501
-0.0574039
-0.047291
-0.0345489
-0.0439332
-0.0520505
-0.0572919
-0.0589727
-0.0561264
-0.0485576
-0.0364818
-0.0206279
-0.00170679
0.019303
0.0412349
0.062811
0.0827411
0.0998159
0.112998
0.121503
0.124869
0.122997
0.116169
0.105028
0.0905267
0.0738376
0.05625
0.0390416
0.0235378
0.0106858
0.00113064
-0.00512318
-0.00817235
-0.00877586
-0.0419115
-0.0516043
-0.0586393
-0.0610496
-0.0582612
-0.049473
-0.0350586
-0.0159621
0.00624224
0.0301904
0.0544152
0.0775067
0.0982289
0.115623
0.129058
0.138239
0.143188
0.144194
0.141746
0.136456
0.128975
0.119931
0.109879
0.0992683
0.0884339
0.0773824
0.0662923
0.0553371
0.0447324
0.0346399
0.0252085
-0.0454645
-0.0548815
-0.0607588
-0.0609738
-0.0551296
-0.042662
-0.0244397
-0.00199146
0.0224852
0.0471724
0.0703185
0.0904592
0.106558
0.118105
0.125114
0.128067
0.127781
0.125267
0.121562
0.117568
0.113919
0.110911
0.108488
0.106283
0.103713
0.0996078
0.0933567
0.0846073
0.0736257
0.0606914
0.0466547
-0.0450425
-0.0536554
-0.0584043
-0.05722
-0.0499247
-0.0362302
-0.0173825
0.0046968
0.0274539
0.0488396
0.0670242
0.0806536
0.0889996
0.0920412
0.0904254
0.0853378
0.0783042
0.0709603
0.0648122
0.0610132
0.0602
0.0624098
0.0671005
0.0732445
0.079509
0.0838711
0.0850067
0.082034
0.0750774
0.0643414
0.0510548
-0.0404516
-0.0476389
-0.0511498
-0.0491564
-0.0417145
-0.0288157
-0.0119386
0.00681294
0.0248112
0.0399924
0.05063
0.0555986
0.0545203
0.0478263
0.036686
0.0228354
0.00833116
-0.00472931
-0.0144904
-0.0195952
-0.0193687
-0.0139044
-0.00402739
0.00882973
0.0228552
0.0356114
0.0452275
0.0503611
0.0508374
0.0466058
0.0389233
-0.0319262
-0.0369976
-0.0389726
-0.0363991
-0.029552
-0.018668
-0.00530176
0.00846557
0.0201981
0.0280058
0.0304021
0.0265523
0.0164029
0.000724497
-0.018977
-0.0406482
-0.0619478
-0.0805395
-0.0943844
-0.102
-0.102647
-0.0964173
-0.0841919
-0.0675141
-0.0483517
-0.0291092
-0.0119593
0.00144241
0.0105598
0.0149858
0.0157242
-0.0206428
-0.0230811
-0.0232325
-0.0200771
-0.0140595
-0.00558807
0.00386288
0.0124178
0.0180503
0.0191867
0.0146648
0.00394456
-0.0127863
-0.0345866
-0.059852
-0.0864932
-0.112176
-0.13459
-0.151721
-0.162081
-0.16488
-0.160112
-0.148524
-0.131499
-0.110852
-0.0885863
-0.0668875
-0.0475076
-0.0312801
-0.0189478
-0.00990484
-0.00888985
-0.00870569
-0.00710037
-0.00345592
0.00170039
0.00789707
0.0138868
0.0181482
0.0192054
0.0158896
0.00739133
-0.00657895
-0.0257145
-0.0490991
-0.0752843
-0.102436
-0.128525
-0.151547
-0.169737
-0.181757
-0.186833
-0.184833
-0.176247
-0.162108
-0.143828
-0.122794
-0.100908
-0.0797668
-0.0603234
-0.0435122
-0.0291142
0.000362089
0.00237324
0.00503418
0.00866779
0.012782
0.0169734
0.0203448
0.021834
0.0205612
0.0157914
0.00704617
-0.00579267
-0.0224357
-0.0421799
-0.0639616
-0.0864547
-0.108196
-0.127731
-0.143757
-0.155245
-0.161541
-0.162417
-0.158075
-0.149099
-0.136358
-0.12055
-0.103056
-0.0850749
-0.0674444
-0.0510676
-0.0359845
0.00442709
0.00672194
0.00909447
0.0117246
0.0142849
0.0165687
0.0181112
0.0183599
0.016978
0.0136346
0.00811816
0.000385673
-0.00941531
-0.0209419
-0.0336778
-0.0469753
-0.0601077
-0.0723319
-0.0829535
-0.0913795
-0.0971701
-0.100071
-0.100024
-0.0971584
-0.0917574
-0.0838957
-0.0742771
-0.0635325
-0.0521753
-0.0408552
-0.0297064
0.00200816
0.00269561
0.00313345
0.00351428
0.00378326
0.00402518
0.00423014
0.00434115
0.00442781
0.00448168
0.00446408
0.00431214
0.00394165
0.00325702
0.0021626
0.000575711
-0.00155543
-0.00423709
-0.00741911
-0.0109854
-0.0147581
-0.0185081
-0.021973
-0.0248808
-0.0269738
-0.0278252
-0.0274321
-0.0258025
-0.0230202
-0.0193473
-0.0148994
-0.00611052
-0.00863103
-0.0114958
-0.014383
-0.0170218
-0.0190067
-0.0199415
-0.0194712
-0.017307
-0.013256
-0.00729075
0.000427582
0.00954376
0.0195282
0.0297195
0.039385
0.0477951
0.0543009
0.058405
0.0598198
0.0584999
0.0546492
0.0486942
0.0412357
0.0329755
0.0247189
0.0170824
0.0106031
0.00557364
0.00210832
0.000103861
-0.0171823
-0.0236098
-0.0303002
-0.0367532
-0.0423979
-0.046558
-0.0485492
-0.047749
-0.0438441
-0.0365788
-0.0259619
-0.0123011
0.0037936
0.0214426
0.0395651
0.0569742
0.0724883
0.0850487
0.0938282
0.0983174
0.0983772
0.094252
0.0865321
0.0760838
0.0639377
0.0511968
0.0388995
0.0279281
0.0187524
0.0116965
0.00653736
-0.0274799
-0.0373168
-0.04724
-0.0565934
-0.064607
-0.0704546
-0.0733283
-0.0725175
-0.0678444
-0.0591204
-0.0464695
-0.0303574
-0.0115844
0.00876205
0.0293932
0.0489332
0.066046
0.0795684
0.0886297
0.0927447
0.0918665
0.0863926
0.0771102
0.0651071
0.0516303
0.0380476
0.0255714
0.0151702
0.00719982
0.00192868
-0.00119638
-0.0337246
-0.0454519
-0.0570684
-0.0678443
-0.0769575
-0.0835879
-0.0869769
-0.0865024
-0.0822172
-0.0740951
-0.0624172
-0.0477834
-0.0310897
-0.013467
0.00381307
0.0194561
0.0322673
0.0412781
0.0458528
0.0457695
0.0412556
0.0329747
0.0219494
0.00945402
-0.00314702
-0.0142345
-0.0226606
-0.0276264
-0.0291713
-0.0273551
-0.023268
-0.0342643
-0.0458784
-0.0572436
-0.0676418
-0.0763473
-0.0826869
-0.0860874
-0.0861407
-0.083143
-0.0772674
-0.0689455
-0.0588557
-0.0478847
-0.037058
-0.0274458
-0.0200545
-0.0157229
-0.0150192
-0.0181621
-0.0249648
-0.0348274
-0.046775
-0.0595578
-0.0717716
-0.08203
-0.0885124
-0.0903113
-0.0869694
-0.0790792
-0.0671945
-0.0529763
-0.0297436
-0.0395807
-0.0490879
-0.057659
-0.0647621
-0.0699537
-0.0729101
-0.0734847
-0.0721606
-0.0692861
-0.0653944
-0.0611715
-0.0574059
-0.054917
-0.0544699
-0.0566853
-0.0619608
-0.0704003
-0.0817686
-0.095464
-0.11054
-0.125766
-0.139742
-0.151027
-0.158308
-0.159677
-0.154549
-0.142848
-0.125708
-0.104163
-0.0804077
-0.0222659
-0.0294897
-0.0363247
-0.0423741
-0.0473238
-0.0509703
-0.0532096
-0.054113
-0.0542417
-0.0540373
-0.0540495
-0.0548938
-0.0571981
-0.0615369
-0.0683612
-0.0779314
-0.0902655
-0.105099
-0.121871
-0.139716
-0.157513
-0.173949
-0.187642
-0.197259
-0.201668
-0.199058
-0.189133
-0.172207
-0.149649
-0.122792
-0.0940491
-0.0144727
-0.0190948
-0.023341
-0.027006
-0.0299527
-0.0321313
-0.0335975
-0.0345379
-0.0354684
-0.0368189
-0.039067
-0.0426963
-0.0481494
-0.0557752
-0.0657778
-0.0781729
-0.0927583
-0.109098
-0.126524
-0.144151
-0.160921
-0.175666
-0.187218
-0.194495
-0.196637
-0.192164
-0.181062
-0.163576
-0.141185
-0.115163
-0.0877804
-0.00825155
-0.0108584
-0.0131495
-0.0150905
-0.0166245
-0.0177523
-0.0185967
-0.0193562
-0.0204104
-0.0220888
-0.0247324
-0.0286626
-0.0341465
-0.0413612
-0.0503624
-0.0610608
-0.0732087
-0.0863976
-0.100069
-0.11353
-0.12599
-0.13661
-0.144577
-0.149161
-0.149815
-0.145585
-0.13645
-0.12265
-0.105405
-0.0855849
-0.0650975
0.0346316
0.0419041
0.0463217
0.0466885
0.0427148
0.0343195
0.0223289
0.00786005
-0.00714103
-0.0211562
-0.0327695
-0.0408452
-0.0446475
-0.0439198
-0.03889
-0.0302235
-0.0189177
-0.00617251
0.00675559
0.0186963
0.0286879
0.0360654
0.0405045
0.0420173
0.0409066
0.0376372
0.0328493
0.0272493
0.0214583
0.0159327
0.0110501
0.0531109
0.0639475
0.0700514
0.0695856
0.0621721
0.0479158
0.0280963
0.00443586
-0.0198796
-0.042417
-0.0609331
-0.0736595
-0.0794922
-0.0781064
-0.0699597
-0.0562063
-0.0385143
-0.0188469
0.00078053
0.018536
0.0329681
0.0431421
0.0486968
0.0498247
0.0471729
0.0417144
0.0345975
0.0269467
0.019631
0.0133392
0.00821239
0.0700343
0.0837748
0.0908734
0.0889483
0.0775131
0.0568558
0.0286539
-0.00460466
-0.0385569
-0.06987
-0.0955083
-0.113121
-0.121301
-0.119725
-0.109154
-0.0912864
-0.0684976
-0.0435163
-0.0190801
0.00239804
0.019099
0.0299766
0.0348111
0.0341581
0.0291738
0.0216066
0.0131341
0.0053586
-0.000802444
-0.00463017
-0.00645096
0.081425
0.0966825
0.103644
0.0995467
0.0838605
0.0569158
0.0209601
-0.0208627
-0.0632475
-0.102125
-0.133845
-0.155643
-0.165954
-0.164574
-0.152627
-0.132365
-0.106819
-0.0793766
-0.0533417
-0.0315115
-0.0158472
-0.00727048
-0.00563145
-0.00981115
-0.0179871
-0.0273944
-0.0358007
-0.0412523
-0.0429672
-0.040427
-0.0347298
0.0840336
0.0987186
0.103888
0.0967581
0.0768547
0.0446496
0.00280331
-0.0450424
-0.0930204
-0.13662
-0.171875
-0.195882
-0.207132
-0.205673
-0.193044
-0.172011
-0.14614
-0.119288
-0.0950918
-0.0764688
-0.0652567
-0.0620049
-0.0659833
-0.0753509
-0.0875195
-0.0985685
-0.10577
-0.106919
-0.101572
-0.0896033
-0.073047
0.0770061
0.0888857
0.090738
0.0800613
0.0565513
0.0208616
-0.0240641
-0.0743098
-0.123908
-0.16826
-0.203431
-0.226677
-0.236767
-0.234132
-0.220745
-0.199809
-0.175262
-0.151218
-0.131394
-0.11858
-0.114265
-0.118447
-0.129695
-0.145388
-0.162171
-0.174994
-0.180734
-0.177053
-0.163937
-0.141755
-0.113491
0.0602871
0.0672609
0.064627
0.0504315
0.0246503
-0.0118318
-0.0559783
-0.103894
-0.150026
-0.190093
-0.220574
-0.239196
-0.245223
-0.23956
-0.224588
-0.203816
-0.181346
-0.161295
-0.147206
-0.14152
-0.145213
-0.157653
-0.176711
-0.199065
-0.220723
-0.235754
-0.240789
-0.233478
-0.21421
-0.183821
-0.146108
0.0364504
0.0373184
0.0299233
0.0130847
-0.0128746
-0.0468163
-0.0858401
-0.126392
-0.163809
-0.194512
-0.215732
-0.225926
-0.224999
-0.214349
-0.196673
-0.175593
-0.155136
-0.139162
-0.130813
-0.13202
-0.143192
-0.163111
-0.189102
-0.21737
-0.243559
-0.261315
-0.26722
-0.259015
-0.237351
-0.203388
-0.161341
0.00898116
0.00359856
-0.00789013
-0.0257459
-0.0492946
-0.0771715
-0.106852
-0.135443
-0.159567
-0.176662
-0.184972
-0.183847
-0.173883
-0.156902
-0.135745
-0.113903
-0.0950516
-0.0825379
-0.0789095
-0.0854955
-0.102169
-0.127299
-0.15794
-0.190183
-0.219692
-0.240322
-0.248832
-0.243158
-0.224012
-0.192633
-0.153135
-0.0183302
-0.0291337
-0.0433425
-0.0602466
-0.0788842
-0.0977419
-0.11489
-0.128366
-0.136323
-0.137421
-0.131051
-0.117496
-0.0979798
-0.0745919
-0.0500759
-0.0275172
-0.00995934
-7.40403e-06
0.000532451
-0.00904459
-0.0281913
-0.0551098
-0.0869474
-0.120111
-0.150729
-0.173554
-0.185775
-0.185614
-0.173644
-0.150924
-0.120898
-0.0424297
-0.0572337
-0.0725576
-0.0867717
-0.0987427
-0.106931
-0.11016
-0.107562
-0.0989106
-0.084145
-0.0637935
-0.0389859
-0.0114109
0.0168047
0.0432811
0.0656174
0.0816486
0.0896982
0.0887921
0.078821
0.0605975
0.0358108
0.0068549
-0.0234165
-0.0520238
-0.0752281
-0.0908905
-0.0976231
-0.0957236
-0.0858595
-0.0703386
-0.0614639
-0.0787266
-0.0938194
-0.10434
-0.109122
-0.106742
-0.0968479
-0.0797096
-0.0566374
-0.0287683
0.00237228
0.0349995
0.0671908
0.0970354
0.122772
0.142916
0.156367
0.162497
0.1612
0.152905
0.138541
0.119457
0.0972953
0.0738435
0.0508633
0.0301847
0.0130682
0.000401608
-0.00780946
-0.0117491
-0.0123408
-0.0745625
-0.0929275
-0.106954
-0.113694
-0.112087
-0.100952
-0.080745
-0.0527835
-0.019688
0.0164122
0.0532336
0.0885901
0.120576
0.147725
0.169085
0.184235
0.19323
0.196529
0.194879
0.189186
0.18039
0.169368
0.156861
0.143433
0.129474
0.114811
0.099687
0.0843833
0.0691175
0.0541278
0.0398434
-0.0813173
-0.0996524
-0.112217
-0.115803
-0.109564
-0.0926587
-0.0662512
-0.0325069
0.00498096
0.043379
0.0799393
0.112342
0.138919
0.158806
0.171949
0.179015
0.181197
0.179985
0.176913
0.173305
0.17008
0.16764
0.165849
0.164097
0.161458
0.155992
0.146889
0.133741
0.116797
0.0965192
0.0743855
-0.0813645
-0.0985968
-0.109443
-0.11074
-0.101929
-0.0825616
-0.0543412
-0.0200141
0.0162639
0.051282
0.0821288
0.106589
0.123386
0.132307
0.134166
0.130609
0.123821
0.116172
0.109865
0.106583
0.107253
0.111915
0.11975
0.129218
0.138333
0.143907
0.144157
0.137969
0.125416
0.10691
0.0844876
-0.0744653
-0.0894229
-0.0981435
-0.0977884
-0.0881245
-0.0690889
-0.0427217
-0.0120515
0.0186401
0.0460889
0.0674909
0.0809136
0.0855309
0.0817314
0.0710284
0.0558157
0.0390017
0.0235943
0.0122791
0.007029
0.00882947
0.0175488
0.0319861
0.0500524
0.069111
0.0854014
0.09638
0.100307
0.0969174
0.0863172
0.0705653
-0.061073
-0.0725446
-0.0785343
-0.0767441
-0.0672534
-0.0503232
-0.0281119
-0.0036355
0.0191152
0.0371106
0.0478683
0.0498401
0.0426255
0.0270535
0.00507076
-0.0205228
-0.0464556
-0.0694138
-0.0864745
-0.0954961
-0.0953986
-0.0862937
-0.0694336
-0.0470245
-0.0218793
0.00235084
0.0226911
0.0369684
0.0445353
0.045042
0.0401431
-0.043002
-0.0500815
-0.0528215
-0.0495716
-0.0406625
-0.026565
-0.00933423
0.00829287
0.0229643
0.0321128
0.0337214
0.026654
0.0108328
-0.0127021
-0.0419053
-0.0739734
-0.105693
-0.133831
-0.155533
-0.168666
-0.172082
-0.165743
-0.150675
-0.128815
-0.102703
-0.0753375
-0.0497176
-0.0281501
-0.0115647
-0.000750463
0.00533148
-0.0236456
-0.0262247
-0.0257562
-0.0212206
-0.0130844
-0.00187485
0.0106664
0.0223056
0.0305638
0.0334883
0.029596
0.0181264
-0.000826122
-0.0262705
-0.0564123
-0.0888524
-0.12086
-0.149684
-0.172865
-0.188511
-0.195509
-0.193632
-0.183522
-0.166575
-0.144715
-0.119967
-0.0949373
-0.0717018
-0.0512515
-0.034627
-0.021373
-0.00736517
-0.00648573
-0.00378658
0.00125371
0.00818929
0.0166082
0.0252628
0.0325907
0.0370744
0.0374421
0.0327414
0.022503
0.00682654
-0.0135902
-0.0375109
-0.063288
-0.0890353
-0.112829
-0.13291
-0.147863
-0.156762
-0.159255
-0.155558
-0.146404
-0.132905
-0.116044
-0.0976673
-0.0792723
-0.0616351
-0.0457541
-0.0315395
0.0018752
0.00408405
0.00710905
0.0111806
0.016045
0.0215603
0.0270986
0.0318618
0.0352292
0.0365869
0.0354446
0.0315128
0.0247446
0.0153597
0.00382684
-0.00918248
-0.0228562
-0.0363206
-0.0487237
-0.0593076
-0.0674815
-0.0728687
-0.0753201
-0.0749121
-0.0719034
-0.0663503
-0.0591101
-0.0508464
-0.0418898
-0.0329055
-0.0238922
0.00207353
0.00296751
0.00398738
0.00529376
0.00696706
0.00923472
0.0121295
0.0156158
0.0197722
0.0245355
0.0297576
0.0352094
0.0405891
0.0455466
0.0497104
0.0527211
0.0542718
0.0541449
0.0522415
0.0486053
0.0434221
0.0370096
0.0297915
0.0222573
0.0149212
0.00845112
0.00302861
-0.00109394
-0.00370621
-0.00496813
-0.00477528
-0.00582387
-0.00849912
-0.0114092
-0.0142918
-0.0166653
-0.0179216
-0.0174328
-0.0145814
-0.00887157
9.50613e-06
0.0121035
0.0271346
0.0444982
0.0632919
0.0823838
0.100513
0.116413
0.12894
0.137195
0.140618
0.139049
0.132743
0.122338
0.108775
0.0931898
0.0767861
0.0606408
0.0458042
0.032933
0.0223451
0.0142466
-0.0180965
-0.0253478
-0.0329109
-0.0403445
-0.046803
-0.0513852
-0.05304
-0.050706
-0.0437716
-0.0317601
-0.0145986
0.00731226
0.0330836
0.0613809
0.0905253
0.118643
0.143842
0.1644
0.17894
0.18657
0.186979
0.180458
0.167858
0.15048
0.129913
0.107781
0.0857589
0.0653886
0.04751
0.0326827
0.0210043
-0.0296599
-0.0408473
-0.0522278
-0.0632058
-0.072709
-0.0797109
-0.0829823
-0.0812933
-0.0741709
-0.0611841
-0.0423644
-0.0182743
0.00998905
0.0408516
0.0723863
0.102488
0.129072
0.150283
0.16469
0.171436
0.170335
0.161887
0.147212
0.127909
0.105862
0.0830848
0.0614613
0.0426292
0.0272449
0.0157421
0.00776425
-0.0360735
-0.0491755
-0.0622515
-0.0746595
-0.0852965
-0.0932102
-0.0972556
-0.0963136
-0.0902124
-0.07873
-0.0620911
-0.0410128
-0.0166876
0.00928895
0.0350531
0.0586516
0.0782325
0.0922441
0.0996101
0.0998651
0.093221
0.0805617
0.0633383
0.0434106
0.0228181
0.00396473
-0.0114268
-0.0220176
-0.0276767
-0.0284689
-0.0255493
-0.035332
-0.0477592
-0.0599623
-0.0713567
-0.0810014
-0.0881844
-0.0920515
-0.0918033
-0.0876125
-0.0795451
-0.0680372
-0.0539081
-0.0383211
-0.0226989
-0.00859099
0.00248973
0.0092307
0.0106825
0.00639237
-0.0034966
-0.0182209
-0.0364401
-0.0563731
-0.0759739
-0.0931789
-0.105252
-0.110903
-0.109351
-0.10118
-0.0871706
-0.0693914
-0.0285889
-0.0383378
-0.0476965
-0.0562595
-0.063368
-0.0686326
-0.0715879
-0.0718467
-0.0698671
-0.065991
-0.06082
-0.0551982
-0.0501535
-0.0468096
-0.0462655
-0.0494598
-0.0570455
-0.0692749
-0.0859178
-0.106204
-0.128847
-0.152117
-0.174006
-0.192407
-0.205364
-0.209971
-0.20548
-0.191728
-0.17
-0.141773
-0.10996
-0.0190329
-0.0253441
-0.0311365
-0.0362578
-0.0403557
-0.0433443
-0.0451051
-0.0456104
-0.0454658
-0.045183
-0.0454227
-0.0469567
-0.0506025
-0.0571409
-0.0672168
-0.0812374
-0.0992879
-0.121063
-0.145831
-0.172414
-0.199242
-0.224451
-0.24604
-0.262051
-0.27079
-0.269464
-0.257793
-0.236246
-0.206388
-0.170112
-0.130693
-0.0104404
-0.0137807
-0.0165799
-0.0188856
-0.0205723
-0.0217316
-0.0224714
-0.0229829
-0.0238592
-0.0256366
-0.028914
-0.0343109
-0.042407
-0.0536744
-0.0684056
-0.0866451
-0.108141
-0.132312
-0.158244
-0.184693
-0.210153
-0.232945
-0.251356
-0.263788
-0.268936
-0.26449
-0.250585
-0.227594
-0.197308
-0.161552
-0.123431
-0.00489201
-0.00638836
-0.00740077
-0.00813278
-0.00853621
-0.00872187
-0.00889255
-0.00929285
-0.0103791
-0.012582
-0.0163445
-0.0220892
-0.0301716
-0.040833
-0.0541559
-0.0700257
-0.0881068
-0.107833
-0.128417
-0.148866
-0.168037
-0.184698
-0.197639
-0.205766
-0.208231
-0.203538
-0.191724
-0.173136
-0.14936
-0.121733
-0.0927862
0.0273875
0.0315927
0.0325352
0.0291861
0.021457
0.00961264
-0.00534924
-0.0219216
-0.0379244
-0.0515946
-0.0613528
-0.066004
-0.0648745
-0.0578906
-0.0455761
-0.0289799
-0.00953983
0.011086
0.0312046
0.0492662
0.0640166
0.0746052
0.0806374
0.082167
0.0796402
0.0736241
0.0650515
0.0549199
0.0442286
0.0337125
0.024164
0.0446991
0.051633
0.0531667
0.0476175
0.0348813
0.0155411
-0.0088867
-0.0360584
-0.0623945
-0.0850631
-0.101542
-0.109942
-0.109223
-0.0993132
-0.0810987
-0.0562986
-0.0272337
0.00345246
0.0330992
0.0593192
0.0802422
0.0946805
0.102197
0.103078
0.0982107
0.088759
0.0763571
0.0625424
0.048681
0.0358561
0.0246845
0.0633838
0.0732701
0.0754994
0.0678052
0.0499674
0.0228127
-0.011652
-0.0501317
-0.0876579
-0.120328
-0.144687
-0.158173
-0.159412
-0.148375
-0.126347
-0.0957437
-0.0597697
-0.0220203
0.0139505
0.0450392
0.0689252
0.0842855
0.0908608
0.0893856
0.0813814
0.0689493
0.054399
0.0398569
0.0267847
0.0163268
0.00859812
0.0790873
0.0913971
0.0940274
0.084203
0.0616224
0.0271854
-0.0164979
-0.0653362
-0.113195
-0.155276
-0.187369
-0.206398
-0.210782
-0.20061
-0.177589
-0.14478
-0.10616
-0.0660983
-0.0288149
0.00214165
0.0242957
0.0364891
0.0389204
0.0330121
0.0210943
0.00651419
-0.0077291
-0.0191882
-0.0265288
-0.0288856
-0.0270802
0.0869583
0.100014
0.101854
0.0895314
0.0627329
0.0224658
-0.0282217
-0.0846688
-0.139995
-0.188844
-0.226583
-0.249909
-0.257245
-0.248918
-0.227061
-0.195286
-0.158147
-0.120523
-0.0869792
-0.0611663
-0.045375
-0.0402903
-0.0450003
-0.0572102
-0.073677
-0.0896345
-0.101497
-0.106658
-0.104205
-0.0938254
-0.0775702
0.0838193
0.0951305
0.0945057
0.0791777
0.0489433
0.00493857
-0.0494918
-0.109408
-0.16773
-0.218964
-0.25846
-0.283037
-0.291372
-0.284155
-0.26395
-0.234802
-0.201625
-0.169524
-0.143094
-0.125774
-0.119393
-0.123944
-0.137663
-0.15732
-0.178773
-0.195872
-0.204585
-0.202317
-0.188708
-0.164141
-0.131956
0.0678076
0.0744722
0.0696294
0.0510198
0.0187021
-0.0260068
-0.0796681
-0.137428
-0.192653
-0.24021
-0.275901
-0.297052
-0.302854
-0.294479
-0.274885
-0.248382
-0.219989
-0.194726
-0.176904
-0.16948
-0.173626
-0.188555
-0.211661
-0.238889
-0.265369
-0.283878
-0.290141
-0.281709
-0.258753
-0.222325
-0.176888
0.0407097
0.0405148
0.0304049
0.0089544
-0.0233967
-0.0651102
-0.112893
-0.162363
-0.207951
-0.245367
-0.2713
-0.283914
-0.283116
-0.270605
-0.249638
-0.224577
-0.200264
-0.181332
-0.171543
-0.173191
-0.186732
-0.21067
-0.24175
-0.275382
-0.306303
-0.326799
-0.3326
-0.321479
-0.293983
-0.251618
-0.199484
0.00650364
-0.00154984
-0.0168869
-0.0398539
-0.0695821
-0.104319
-0.141176
-0.176624
-0.206681
-0.228303
-0.239409
-0.23923
-0.228483
-0.209339
-0.185172
-0.160127
-0.138557
-0.124417
-0.120703
-0.12895
-0.148955
-0.178728
-0.214718
-0.252237
-0.286104
-0.308902
-0.316651
-0.307394
-0.281817
-0.241555
-0.191652
-0.0296777
-0.045226
-0.064713
-0.0872784
-0.111667
-0.135981
-0.157981
-0.175304
-0.1859
-0.188236
-0.181647
-0.166514
-0.144319
-0.117542
-0.0894193
-0.0635689
-0.0435415
-0.0323576
-0.0320869
-0.0434959
-0.0658742
-0.0970492
-0.133617
-0.17132
-0.205597
-0.230181
-0.24169
-0.238469
-0.221109
-0.191007
-0.152416
-0.0630985
-0.0847281
-0.106683
-0.126912
-0.143892
-0.155706
-0.160952
-0.158628
-0.148741
-0.131361
-0.107247
-0.0778497
-0.0452422
-0.0119703
0.0191681
0.0453926
0.0642305
0.0738022
0.0730568
0.0619509
0.0415049
0.0137362
-0.0185424
-0.0520133
-0.0832401
-0.107865
-0.123383
-0.128502
-0.123549
-0.109395
-0.0888788
-0.0904065
-0.116208
-0.138924
-0.155468
-0.164213
-0.163381
-0.152498
-0.131972
-0.103776
-0.0694884
-0.0311395
0.00896696
0.048422
0.0849014
0.116329
0.141021
0.157787
0.166016
0.165707
0.157464
0.142434
0.122203
0.0986454
0.0737593
0.0494762
0.0277642
0.0100177
-0.00291973
-0.0110661
-0.0146344
-0.0147081
-0.109703
-0.137731
-0.159874
-0.172282
-0.173395
-0.161721
-0.13771
-0.103066
-0.0614466
-0.0156934
0.0311741
0.0762943
0.117211
0.152079
0.179755
0.199805
0.212416
0.218275
0.218403
0.213972
0.206134
0.195895
0.184029
0.171043
0.157205
0.141996
0.125567
0.108195
0.0900852
0.0716209
0.0534487
-0.120036
-0.148491
-0.16914
-0.177733
-0.172916
-0.153601
-0.121054
-0.0780276
-0.0294374
0.0209603
0.0695113
0.113114
0.149519
0.177535
0.197041
0.208863
0.21452
0.215916
0.215007
0.21346
0.212399
0.212262
0.212778
0.213054
0.21179
0.206299
0.195485
0.178946
0.15693
0.130174
0.100677
-0.120849
-0.147993
-0.166397
-0.171809
-0.163183
-0.139886
-0.103823
-0.0584597
-0.00944881
0.0389427
0.082794
0.11905
0.145847
0.162699
0.170446
0.171029
0.167101
0.161588
0.157222
0.156097
0.159352
0.167014
0.178022
0.190408
0.201651
0.207558
0.205938
0.195645
0.176764
0.150046
0.118223
-0.111928
-0.135959
-0.151259
-0.153948
-0.143343
-0.119251
-0.0839904
-0.0413656
0.00279548
0.0441206
0.0787615
0.103931
0.11823
0.121801
0.116239
0.104299
0.0894342
0.0752777
0.0651102
0.06136
0.0652513
0.0766388
0.0940584
0.114955
0.136104
0.152668
0.161653
0.16122
0.151141
0.131854
0.106143
-0.0939481
-0.113091
-0.124291
-0.124332
-0.112899
-0.0901616
-0.0585969
-0.0219772
0.014236
0.0459365
0.0696295
0.0829388
0.0849071
0.0761251
0.0586181
0.0355362
0.0106854
-0.0120015
-0.0290044
-0.0377109
-0.0367707
-0.0262648
-0.00765113
0.0164614
0.0427346
0.0665388
0.0845003
0.094277
0.0953007
0.0875025
0.0731695
-0.0692175
-0.0821279
-0.0884263
-0.0857288
-0.0740327
-0.0537342
-0.0272105
0.00213963
0.0296844
0.0518901
0.0658233
0.0695839
0.0625613
0.0455381
0.0205799
-0.00924589
-0.040289
-0.0687903
-0.0913652
-0.105442
-0.109587
-0.103664
-0.0887982
-0.0671887
-0.041747
-0.0162226
0.00611827
0.0227679
0.0329422
0.0360702
0.0336696
-0.0419473
-0.048291
-0.0496377
-0.0444487
-0.0329192
-0.0154982
0.00579198
0.0282123
0.0482895
0.0632847
0.070951
0.0698652
0.059623
0.0409216
0.0154745
-0.0142053
-0.0451245
-0.0741763
-0.0985162
-0.115902
-0.124953
-0.125296
-0.117549
-0.103193
-0.0843189
-0.0634169
-0.0431663
-0.025808
-0.0120976
-0.0028932
0.00259143
-0.0175567
-0.0184269
-0.0159539
-0.00931382
0.00126559
0.0154666
0.0318514
0.0485531
0.0634065
0.0745872
0.0805773
0.0803781
0.0736405
0.060728
0.0426714
0.0210417
-0.00223978
-0.0251262
-0.0456801
-0.0622849
-0.0738217
-0.0797759
-0.080243
-0.075875
-0.0677376
-0.0569963
-0.0453539
-0.0343516
-0.0244277
-0.0163814
-0.0098816
-0.00105034
0.00110796
0.0051205
0.0113251
0.0196467
0.0300555
0.0418681
0.0542039
0.0661594
0.0768295
0.0853835
0.0911581
0.0937249
0.0929376
0.0889348
0.0821111
0.0730662
0.062534
0.0513019
0.040134
0.0296933
0.0204823
0.0128225
0.00684469
0.0025182
-0.000167404
-0.00171363
-0.00264368
-0.00284979
-0.00272789
-0.00204865
0.00487782
0.00695612
0.00970776
0.0132399
0.0177869
0.023696
0.0311057
0.0401117
0.0508479
0.0632179
0.0769579
0.0916277
0.106624
0.121218
0.134606
0.145974
0.154574
0.159798
0.161241
0.158746
0.152426
0.142651
0.130022
0.115309
0.0993867
0.0831218
0.0672296
0.0523085
0.0390853
0.0277667
0.0187276
0.00106962
0.000385893
-0.000421824
-0.0012718
-0.00154476
-0.0005284
0.00267036
0.00897407
0.019206
0.0338653
0.0530744
0.0764959
0.103309
0.132242
0.16167
0.189751
0.214609
0.234513
0.248065
0.254331
0.252946
0.244139
0.228703
0.207892
0.183279
0.156359
0.128864
0.102359
0.0780533
0.0567122
0.0388592
-0.00829564
-0.0129723
-0.0181814
-0.0237638
-0.0287577
-0.0322027
-0.0326616
-0.0286619
-0.0190833
-0.00311055
0.019553
0.048562
0.0828911
0.120871
0.160318
0.198725
0.233507
0.262253
0.282981
0.29433
0.295704
0.287324
0.270178
0.245892
0.216528
0.18406
0.150878
0.119109
0.09013
0.0649675
0.0440277
-0.0174181
-0.0254121
-0.0340139
-0.0429984
-0.0512162
-0.0576563
-0.0606502
-0.0585347
-0.0502452
-0.034943
-0.0123617
0.017064
0.0521662
0.09109
0.131442
0.170513
0.205539
0.233991
0.253833
0.263747
0.26327
0.252843
0.233738
0.207896
0.177684
0.145523
0.114008
0.0853105
0.060552
0.0405602
0.0251844
-0.0212998
-0.0303805
-0.039904
-0.049679
-0.0585896
-0.0657933
-0.0697345
-0.0689192
-0.0625888
-0.0501265
-0.0314536
-0.00713316
0.0216176
0.052988
0.0847317
0.114388
0.139537
0.158061
0.168395
0.169716
0.162057
0.14632
0.124165
0.0978252
0.0698248
0.0430481
0.0198696
0.00199308
-0.0101027
-0.016251
-0.0176004
-0.0180815
-0.0255368
-0.0331816
-0.0409432
-0.0479469
-0.0536863
-0.056993
-0.0568088
-0.0527883
-0.044678
-0.0326576
-0.0174056
-8.19744e-05
0.0177445
0.0342502
0.047558
0.0559531
0.0581032
0.0532478
0.0413458
0.0231339
9.06419e-05
-0.0257103
-0.0518121
-0.0756724
-0.0940004
-0.104949
-0.107615
-0.102368
-0.0899728
-0.0727496
-0.00955461
-0.0135457
-0.0174278
-0.0213476
-0.0247894
-0.0276451
-0.0292661
-0.0291446
-0.0273269
-0.0239423
-0.0194143
-0.0144826
-0.0101609
-0.00765602
-0.00822877
-0.0130282
-0.0229248
-0.0383525
-0.0591862
-0.0846504
-0.11332
-0.143205
-0.171923
-0.196925
-0.215796
-0.225023
-0.223417
-0.210932
-0.188776
-0.158615
-0.123851
-9.51205e-05
-0.000477161
-0.000487053
-0.000500703
-0.000358004
-0.000268318
-6.99653e-05
0.000270726
0.000444531
4.76497e-05
-0.0014822
-0.00485563
-0.0108753
-0.0203563
-0.0340121
-0.0523306
-0.0754593
-0.103108
-0.134489
-0.168272
-0.202637
-0.235379
-0.264091
-0.286383
-0.300147
-0.301991
-0.291304
-0.268872
-0.236261
-0.195707
-0.151064