# vtk DataFile Version 2.0
Func
ASCII
DATASET RECTILINEAR_GRID
DIMENSIONS 31 31 31
X_COORDINATES 31 double
-9.67742
-9.03226
-8.3871
-7.74194
-7.09677
-6.45161
-5.80645
-5.16129
-4.51613
-3.87097
-3.22581
-2.58065
-1.93548
-1.29032
-0.645161
0
0.645161
1.29032
1.93548
2.58065
3.22581
3.87097
4.51613
5.16129
5.80645
6.45161
7.09677
7.74194
8.3871
9.03226
9.67742
Y_COORDINATES 31 double
-9.67742
-9.03226
-8.3871
-7.74194
-7.09677
-6.45161
-5.80645
-5.16129
-4.51613
-3.87097
-3.22581
-2.58065
-1.93548
-1.29032
-0.645161
0
0.645161
1.29032
1.93548
2.58065
3.22581
3.87097
4.51613
5.16129
5.80645
6.45161
7.09677
7.74194
8.3871
9.03226
9.67742
Z_COORDINATES 31 double
-9.67742
-9.03226
-8.3871
-7.74194
-7.09677
-6.45161
-5.80645
-5.16129
-4.51613
-3.87097
-3.22581
-2.58065
-1.93548
-1.29032
-0.645161
0
0.645161
1.29032
1.93548
2.58065
3.22581
3.87097
4.51613
5.16129
5.80645
6.45161
7.09677
7.74194
8.3871
9.03226
9.67742
POINT_DATA 29791
SCALARS data double 1
LOOKUP_TABLE default
-0.0330172
-0.0410103
-0.046951
-0.0495656
-0.0484334
-0.0431133
-0.0339767
-0.0217025
-0.00766208
0.00699189
0.0210317
0.0332854
0.0427373
0.0486226
0.050484
0.0482
0.0419775
0.0323238
0.0199939
0.00592586
-0.00883815
-0.0232364
-0.0362752
-0.047098
-0.0550483
-0.0593616
-0.0599151
-0.0568655
-0.0508821
-0.042588
-0.0329618
-0.0531209
-0.0658961
-0.0753889
-0.0795707
-0.0778172
-0.0695904
-0.0554857
-0.0365902
-0.0151703
0.00694216
0.0278422
0.045764
0.0592384
0.0672304
0.0692113
0.0651824
0.0556364
0.041488
0.0239702
0.00451788
-0.015364
-0.034227
-0.0507945
-0.0640461
-0.0732732
-0.0776475
-0.0772779
-0.0725391
-0.0642816
-0.0534421
-0.0410141
-0.0753618
-0.0934601
-0.107074
-0.11338
-0.11157
-0.101017
-0.0825373
-0.0577718
-0.0299131
-0.00147232
0.0250119
0.0472729
0.063528
0.0726479
0.0742281
0.0685801
0.0566374
0.0398182
0.0198504
-0.00141302
-0.0221794
-0.0408793
-0.056284
-0.0675749
-0.0743515
-0.0762207
-0.0736407
-0.0674317
-0.0584412
-0.047706
-0.0359304
-0.097825
-0.121439
-0.139448
-0.148236
-0.146887
-0.134602
-0.112635
-0.0832004
-0.0503986
-0.017376
0.0127922
0.0374903
0.0548203
0.0637885
0.0643503
0.0573425
0.0443021
0.0272368
0.00835597
-0.0101962
-0.026581
-0.0394477
-0.0480255
-0.0521388
-0.0521225
-0.0485978
-0.0426594
-0.0354919
-0.0278842
-0.0207133
-0.0139904
-0.11906
-0.147876
-0.169904
-0.180904
-0.179906
-0.166036
-0.14101
-0.107673
-0.0710275
-0.0348172
-0.00256695
0.0228942
0.0397285
0.0472816
0.0460796
0.0376767
0.0243631
0.00881814
-0.00626951
-0.0185654
-0.0263832
-0.0288755
-0.0260756
-0.0188262
-0.00856208
0.00259578
0.0127289
0.0201646
0.0243579
0.0247756
0.022463
-0.138129
-0.171352
-0.19654
-0.208897
-0.207461
-0.191336
-0.162773
-0.125315
-0.0848744
-0.0458069
-0.012067
0.0133542
0.0287616
0.0339477
0.0301298
0.0197004
0.00581016
-0.00811174
-0.0188594
-0.0239205
-0.0218268
-0.0123485
0.00352601
0.0237607
0.0456421
0.0652979
0.0798863
0.0872116
0.0870004
0.0791561
0.0658749
-0.153465
-0.18976
-0.21673
-0.229086
-0.225924
-0.2064
-0.173346
-0.131036
-0.0862941
-0.0441112
-0.00888879
0.0162103
0.0296332
0.0316268
0.0241174
0.0103643
-0.00558301
-0.0194965
-0.027596
-0.0271279
-0.0167741
0.00314578
0.0307518
0.0628713
0.095554
0.123223
0.142133
0.149557
0.145412
0.12999
0.10654
-0.164486
-0.202427
-0.22976
-0.240779
-0.234667
-0.21069
-0.172249
-0.124345
-0.0746688
-0.0288629
0.00818969
0.0330954
0.0443623
0.0425954
0.0303317
0.0116124
-0.00866777
-0.0254891
-0.0344463
-0.0324265
-0.0180787
0.007969
0.0432219
0.0836594
0.124364
0.158423
0.181322
0.189841
0.183899
0.163987
0.134031
-0.170845
-0.209126
-0.235694
-0.244511
-0.234855
-0.206129
-0.16222
-0.108753
-0.0541642
-0.00469069
0.0343057
0.0591448
0.0682804
0.0625094
0.0447835
0.0197297
-0.00707567
-0.0299203
-0.0437805
-0.0450784
-0.0322055
-0.00576635
0.0315408
0.075299
0.120063
0.158196
0.184664
0.195837
0.191393
0.171756
0.140977
-0.172823
-0.210531
-0.235797
-0.242356
-0.229557
-0.196927
-0.148661
-0.0908089
-0.0323094
0.0201473
0.0607969
0.0856558
0.0930078
0.0836348
0.0606323
0.0289148
-0.00553818
-0.036534
-0.0585363
-0.0674666
-0.0612682
-0.0401834
-0.00665857
0.0350192
0.0794105
0.118908
0.148285
0.163649
0.164211
0.150059
0.12476
-0.170913
-0.207601
-0.23167
-0.236762
-0.222249
-0.187701
-0.13738
-0.077453
-0.0170122
0.0370497
0.0787296
0.103786
0.110246
0.0986628
0.0719592
0.0349614
-0.0063299
-0.0455735
-0.0769501
-0.0959627
-0.100018
-0.0887375
-0.0639108
-0.0291901
0.0105318
0.0484337
0.0794801
0.0997244
0.107791
0.103231
0.0885955
-0.165412
-0.200936
-0.224324
-0.229294
-0.215161
-0.181431
-0.132124
-0.0731558
-0.0133288
0.0405959
0.0826213
0.108361
0.115547
0.10431
0.0770734
0.0381593
-0.00686407
-0.0519369
-0.0913055
-0.120271
-0.135756
-0.136637
-0.12377
-0.0997669
-0.0685053
-0.0353817
-0.00483905
0.0193969
0.0353854
0.0420901
0.0407071
-0.156171
-0.190387
-0.213628
-0.219872
-0.208298
-0.178218
-0.133102
-0.078216
-0.0215912
0.0305215
0.0724274
0.0997621
0.109975
0.102625
0.0793409
0.0435293
-0.000144585
-0.0463806
-0.0899192
-0.126187
-0.151812
-0.164962
-0.165435
-0.154555
-0.13484
-0.109832
-0.083
-0.0575347
-0.0357571
-0.0191837
-0.00805506
-0.142666
-0.175137
-0.198399
-0.206867
-0.199535
-0.175403
-0.137121
-0.0889457
-0.0376758
0.0113179
0.0529474
0.083067
0.0989049
0.0993603
0.0850397
0.0580918
0.0218553
-0.0195858
-0.0619073
-0.101044
-0.133617
-0.157251
-0.170729
-0.174003
-0.16805
-0.154369
-0.135144
-0.112719
-0.0894838
-0.0671933
-0.0473505
-0.124483
-0.154374
-0.17728
-0.188214
-0.185968
-0.169163
-0.139438
-0.0997744
-0.0553591
-0.0103785
0.0309554
0.0649118
0.0885982
0.100245
0.0993115
0.0864646
0.0634105
0.0326609
-0.00277124
-0.0396913
-0.0750354
-0.106137
-0.130933
-0.148079
-0.156992
-0.157184
-0.149354
-0.134739
-0.115445
-0.0931495
-0.0702549
-0.102012
-0.128274
-0.15005
-0.163063
-0.165931
-0.15689
-0.136486
-0.106287
-0.0696333
-0.0293287
0.0114837
0.049658
0.0823079
0.107064
0.122246
0.126969
0.121175
0.105611
0.0817412
0.0516178
0.0177074
-0.0173117
-0.0507784
-0.0802536
-0.10373
-0.118981
-0.125168
-0.122284
-0.111826
-0.0951045
-0.0749676
-0.0770294
-0.0988401
-0.118737
-0.133193
-0.14072
-0.139212
-0.128158
-0.107727
-0.0793517
-0.0443965
-0.00484491
0.0368589
0.0779708
0.115664
0.14725
0.170399
0.183355
0.185111
0.175528
0.155394
0.126386
0.09095
0.0520684
0.0129891
-0.0231184
-0.0526567
-0.0733775
-0.0840327
-0.0853133
-0.0779657
-0.0648603
-0.0527893
-0.0700663
-0.0878653
-0.103366
-0.115046
-0.120546
-0.118428
-0.10762
-0.0877933
-0.0589596
-0.0219741
0.0214635
0.0688702
0.117152
0.162849
0.202455
0.232771
0.25125
0.256294
0.247472
0.225616
0.19277
0.151982
0.106986
0.0617732
0.0208804
-0.0123107
-0.0354835
-0.048492
-0.0514616
-0.0469914
-0.0334108
-0.047145
-0.0634859
-0.0801861
-0.0957492
-0.107652
-0.113753
-0.112007
-0.100667
-0.0786247
-0.0457656
-0.0030933
0.0472452
0.102086
0.157507
0.209201
0.252931
0.284999
0.302667
0.304503
0.290571
0.262455
0.223067
0.176328
0.126672
0.0791557
0.0379015
0.00598421
-0.0157589
-0.0269252
-0.0297339
-0.02267
-0.0348598
-0.0511723
-0.0697282
-0.0890838
-0.106632
-0.119795
-0.12592
-0.122342
-0.107197
-0.0796754
-0.0402363
0.00931505
0.0659138
0.12549
0.183366
0.234763
0.275332
0.30165
0.311632
0.30479
0.282299
0.246835
0.202253
0.153086
0.104549
0.0610618
0.0260602
0.000784122
-0.0140507
-0.0203688
-0.0226091
-0.0357349
-0.0537336
-0.07485
-0.0976823
-0.119602
-0.137897
-0.149713
-0.152083
-0.142839
-0.120854
-0.0862868
-0.0406798
0.013104
0.0711238
0.128752
0.18118
0.223955
0.253493
0.267501
0.265257
0.24769
0.217241
0.177555
0.132986
0.0886476
0.0488354
0.0169301
-0.005799
-0.0186102
-0.0233743
-0.0325385
-0.0487267
-0.0696346
-0.0933906
-0.118605
-0.142686
-0.163091
-0.177185
-0.182341
-0.176582
-0.158902
-0.129471
-0.0897274
-0.0423081
0.00917667
0.0605044
0.107304
0.145548
0.172017
0.184693
0.182999
0.167875
0.141636
0.107678
0.0700189
0.0335172
0.00201378
-0.0215341
-0.0362154
-0.0415657
-0.0397268
-0.0489371
-0.0691295
-0.0929554
-0.118236
-0.143572
-0.166479
-0.184865
-0.196709
-0.200298
-0.194328
-0.178344
-0.152869
-0.119441
-0.0805176
-0.0392664
0.000753001
0.0359788
0.0632537
0.0801975
0.0855167
0.0791772
0.0624311
0.0376546
0.00807253
-0.0226786
-0.0500314
-0.0708111
-0.082748
-0.0856263
-0.0795252
-0.0671821
-0.0663849
-0.0898705
-0.115093
-0.139465
-0.161587
-0.179177
-0.190825
-0.195438
-0.192641
-0.182186
-0.16453
-0.140844
-0.112967
-0.0832675
-0.0544375
-0.0292269
-0.0101452
0.000833972
0.00252337
-0.00528381
-0.0217406
-0.0449933
-0.0723809
-0.10071
-0.126662
-0.145921
-0.156051
-0.155611
-0.145305
-0.125945
-0.1011
-0.0792634
-0.103815
-0.127687
-0.147889
-0.163075
-0.171274
-0.171908
-0.165002
-0.151703
-0.133043
-0.110599
-0.0863736
-0.0626484
-0.0417872
-0.0260313
-0.0172836
-0.0169056
-0.025542
-0.0430058
-0.0682125
-0.0992233
-0.133378
-0.167549
-0.198421
-0.222883
-0.236791
-0.23841
-0.227133
-0.204661
-0.172616
-0.13548
-0.0836527
-0.106253
-0.125652
-0.138563
-0.143772
-0.139726
-0.126711
-0.105893
-0.0798717
-0.0509608
-0.0218731
0.00453879
0.0255184
0.0386605
0.0421206
0.0347859
0.0163912
-0.0124198
-0.0501063
-0.0942909
-0.141914
-0.189456
-0.233242
-0.269742
-0.295943
-0.307811
-0.304198
-0.285219
-0.253496
-0.211409
-0.164254
-0.0782413
-0.0961612
-0.10875
-0.11265
-0.10686
-0.0903066
-0.0640274
-0.0301472
0.00763256
0.0459694
0.0812532
0.109969
0.129006
0.135951
0.129302
0.108604
0.0744884
0.0286475
-0.0262811
-0.0868755
-0.149174
-0.208962
-0.262126
-0.304958
-0.334509
-0.346881
-0.341357
-0.318582
-0.281845
-0.234082
-0.181058
-0.0648731
-0.0765562
-0.0816543
-0.0769588
-0.0617352
-0.0353729
0.00057566
0.0433885
0.0888144
0.132944
0.171708
0.201288
0.218465
0.220926
0.207468
0.178102
0.134051
0.077659
0.0122138
-0.058276
-0.129375
-0.196544
-0.255505
-0.302545
-0.334845
-0.348751
-0.343827
-0.320999
-0.283856
-0.235568
-0.181976
-0.0471926
-0.0528072
-0.0517906
-0.0413444
-0.0209963
0.0094777
0.04839
0.0929226
0.138958
0.182649
0.220062
0.247579
0.262228
0.261969
0.245876
0.214213
0.168412
0.110953
0.045176
-0.0249545
-0.0951446
-0.161081
-0.218772
-0.264822
-0.296715
-0.311244
-0.308122
-0.288407
-0.255425
-0.212196
-0.164026
-0.0295826
-0.0308473
-0.0266014
-0.0146316
0.00530511
0.0332572
0.0676603
0.106133
0.145312
0.182005
0.212978
0.235288
0.24655
0.245171
0.230486
0.202821
0.163456
0.114525
0.0588486
-0.000265185
-0.0592696
-0.114629
-0.163098
-0.20194
-0.22915
-0.242225
-0.24104
-0.226254
-0.200732
-0.1669
-0.129076
-0.01518
-0.0142387
-0.00967454
9.80596e-05
0.0151334
0.0354178
0.0598399
0.0867273
0.113853
0.139056
0.160154
0.175172
0.182517
0.18114
0.17062
0.151208
0.123799
0.0898641
0.0513369
0.0104726
-0.0303147
-0.0686222
-0.102248
-0.129338
-0.148536
-0.158231
-0.158227
-0.14892
-0.132371
-0.110116
-0.0852963
-0.0366669
-0.0446172
-0.0492871
-0.0494849
-0.044642
-0.0344084
-0.0194607
-0.000773929
0.019691
0.0402668
0.0592269
0.0749597
0.0861141
0.0917255
0.0912879
0.0847862
0.0726746
0.0558247
0.0354396
0.0129545
-0.0100837
-0.0321394
-0.0518097
-0.0679184
-0.079597
-0.0857916
-0.0864816
-0.0820161
-0.0733074
-0.0613144
-0.0474147
-0.0601445
-0.0732854
-0.0813316
-0.082223
-0.0751869
-0.0599013
-0.0374102
-0.00921916
0.0214458
0.0519697
0.0797054
0.102258
0.117707
0.124787
0.122978
0.112524
0.0943594
0.0699967
0.0413601
0.0106118
-0.020046
-0.0485542
-0.073151
-0.0924814
-0.105665
-0.111594
-0.110689
-0.103691
-0.0917002
-0.0760644
-0.0582974
-0.0883829
-0.108035
-0.120797
-0.123692
-0.115712
-0.0965353
-0.0675788
-0.031098
0.00835382
0.0472026
0.0819301
0.109477
0.127545
0.134811
0.131015
0.116925
0.0941823
0.0650775
0.0322841
-0.00141933
-0.0334245
-0.0615275
-0.0840824
-0.100083
-0.109159
-0.110904
-0.106278
-0.0967342
-0.0833764
-0.0676708
-0.050816
-0.119694
-0.14695
-0.165611
-0.171745
-0.164158
-0.142379
-0.108475
-0.0654953
-0.019339
0.0255012
0.0647473
0.0948654
0.113431
0.119372
0.113006
0.0959255
0.0707017
0.0405304
0.00882032
-0.0212075
-0.0468733
-0.0663024
-0.0785405
-0.0835524
-0.0820837
-0.0752802
-0.0650129
-0.0532751
-0.041202
-0.0300286
-0.0200669
-0.151573
-0.186716
-0.211467
-0.221072
-0.214225
-0.190406
-0.152356
-0.104006
-0.0526259
-0.0035973
0.0381414
0.0687466
0.0858937
0.0890268
0.0793266
0.0594672
0.0331605
0.00462203
-0.0220032
-0.0431872
-0.0564519
-0.0606439
-0.0559818
-0.0439264
-0.0268498
-0.00815281
0.00915825
0.0223798
0.0305576
0.0329499
0.0306696
-0.181982
-0.224383
-0.254451
-0.266677
-0.259701
-0.233007
-0.190112
-0.135927
-0.0791488
-0.0260856
0.0176608
0.0479794
0.0627335
0.0620094
0.0480008
0.0246239
-0.00312408
-0.0298941
-0.0507425
-0.0618372
-0.0609743
-0.0478613
-0.0240799
0.00718786
0.04171
0.0734809
0.098249
0.112569
0.115657
0.107375
0.0904196
-0.207681
-0.255587
-0.289149
-0.302145
-0.293231
-0.26198
-0.21274
-0.151475
-0.0883115
-0.0305394
0.0155336
0.0454943
0.0573694
0.0518767
0.0322288
0.00360902
-0.0276551
-0.055015
-0.0726431
-0.0763022
-0.0639496
-0.0360338
0.00461616
0.0532031
0.10372
0.147654
0.179542
0.1952
0.193892
0.175994
0.145636
-0.226805
-0.278022
-0.312887
-0.324554
-0.311747
-0.274199
-0.217078
-0.1474
-0.0766613
-0.0131568
0.0360386
0.0661115
0.0751203
0.0642598
0.0376041
0.00146667
-0.0365827
-0.0688131
-0.0884405
-0.0906473
-0.0732759
-0.0371525
0.0140666
0.074409
0.136504
0.189905
0.228126
0.246286
0.243466
0.220279
0.181748
-0.238331
-0.290682
-0.324935
-0.333737
-0.315902
-0.271361
-0.205981
-0.127698
-0.0491725
0.0203709
0.0730957
0.103704
0.110114
0.0937457
0.0592402
0.013744
-0.0341806
-0.0757742
-0.103315
-0.111253
-0.0969893
-0.061242
-0.00788798
0.0565923
0.124118
0.183243
0.226776
0.249253
0.249304
0.22739
0.188642
-0.242526
-0.294377
-0.326952
-0.332538
-0.310026
-0.25951
-0.187307
-0.101986
-0.0169985
0.0577239
0.113701
0.145133
0.149629
0.128535
0.0866583
0.0315344
-0.0276995
-0.0815789
-0.121611
-0.141477
-0.137869
-0.110913
-0.0640476
-0.00349675
0.0627294
0.123315
0.170794
0.199309
0.206823
0.193261
0.163002
-0.240405
-0.290908
-0.321803
-0.325199
-0.300002
-0.246351
-0.170653
-0.0816678
0.00690243
0.0847983
0.143149
0.175732
0.179731
0.15611
0.109379
0.0469088
-0.022157
-0.0881485
-0.142156
-0.17723
-0.189248
-0.177383
-0.144067
-0.0945399
-0.0359623
0.0216043
0.0709244
0.106041
0.124168
0.124427
0.109707
-0.232955
-0.281898
-0.311921
-0.315166
-0.290458
-0.237801
-0.163243
-0.0751908
0.0130714
0.091462
0.151095
0.185502
0.1914
0.169097
0.12233
0.057697
-0.0163247
-0.0905013
-0.156035
-0.205683
-0.234609
-0.240884
-0.225546
-0.192288
-0.146749
-0.0968065
-0.0489161
-0.00874726
0.0202727
0.0364
0.0405858
-0.220535
-0.267901
-0.298083
-0.303487
-0.282749
-0.235524
-0.167042
-0.0847812
-0.000884938
0.0753112
0.135352
0.172785
0.183889
0.168105
0.127976
0.0687256
-0.00252569
-0.0776892
-0.148719
-0.20858
-0.252021
-0.276085
-0.280272
-0.266382
-0.238054
-0.200372
-0.158473
-0.117283
-0.080575
-0.0507914
-0.0289895
-0.202757
-0.248221
-0.279169
-0.288495
-0.274569
-0.236502
-0.178307
-0.106015
-0.029944
0.0418652
0.101843
0.143849
0.163824
0.160225
0.134076
0.0887303
0.0293347
-0.037836
-0.106141
-0.169322
-0.222152
-0.260913
-0.283642
-0.290153
-0.281839
-0.260748
-0.230241
-0.194035
-0.155822
-0.118387
-0.0844974
-0.179055
-0.221713
-0.253219
-0.267164
-0.261621
-0.235037
-0.189927
-0.130499
-0.0646936
0.00119015
0.0608628
0.108788
0.140722
0.15413
0.148346
0.124532
0.0854244
0.034967
-0.0221509
-0.0809818
-0.136797
-0.185496
-0.223918
-0.250014
-0.262924
-0.261776
-0.247843
-0.223244
-0.191123
-0.154167
-0.116282
-0.14971
-0.188232
-0.219365
-0.237549
-0.240602
-0.226271
-0.195465
-0.150391
-0.0962675
-0.0373747
0.0215566
0.0758389
0.121229
0.154311
0.17274
0.175402
0.162438
0.135194
0.096069
0.0483102
-0.00426374
-0.0575767
-0.107636
-0.150839
-0.184276
-0.204551
-0.210754
-0.203176
-0.184023
-0.155462
-0.121859
-0.116826
-0.150026
-0.179676
-0.201134
-0.212048
-0.209533
-0.192954
-0.162551
-0.120755
-0.0697489
-0.0125864
0.0470565
0.105133
0.157549
0.200487
0.23072
0.245903
0.244812
0.227491
0.195319
0.150937
0.0980455
0.0410653
-0.0152611
-0.0663639
-0.106895
-0.133907
-0.145866
-0.143804
-0.129085
-0.105915
-0.0846431
-0.112231
-0.139855
-0.163746
-0.181497
-0.189716
-0.186438
-0.17018
-0.140805
-0.0985499
-0.0448478
0.0176881
0.0853734
0.153714
0.217767
0.272587
0.313729
0.337722
0.34248
0.327596
0.294455
0.246147
0.187154
0.122891
0.0590889
0.00240247
-0.0425725
-0.0727121
-0.0878602
-0.0884941
-0.0782264
-0.0588189
-0.0819427
-0.108112
-0.134269
-0.158037
-0.175679
-0.184228
-0.180873
-0.163426
-0.130532
-0.0822453
-0.0201985
0.0523889
0.130908
0.209735
0.282763
0.344038
0.388421
0.412167
0.413407
0.392393
0.351522
0.295053
0.228634
0.158612
0.0923233
0.0354472
-0.00774859
-0.036125
-0.0493912
-0.0504106
-0.0447395
-0.065979
-0.0923911
-0.12136
-0.150575
-0.176117
-0.194407
-0.201815
-0.194858
-0.171119
-0.129687
-0.0714364
0.000879748
0.0827793
0.168416
0.251144
0.324228
0.381585
0.418475
0.432077
0.421824
0.389498
0.338979
0.27579
0.206388
0.138264
0.077527
0.0290137
-0.00553732
-0.0253578
-0.0326834
-0.0454667
-0.0681525
-0.0969907
-0.129475
-0.16335
-0.194649
-0.219613
-0.234356
-0.235004
-0.218739
-0.184231
-0.131954
-0.0643077
0.0145016
0.0988062
0.182029
0.257393
0.318666
0.360869
0.380866
0.377732
0.35286
0.309755
0.253592
0.190541
0.127861
0.0714677
0.0261586
-0.00621846
-0.0248133
-0.031579
-0.0601799
-0.0872202
-0.120075
-0.156019
-0.192808
-0.226562
-0.253763
-0.270844
-0.27448
-0.262162
-0.232768
-0.186818
-0.12658
-0.0559464
0.019886
0.094924
0.163021
0.218554
0.257065
0.275792
0.273991
0.25303
0.216185
0.168229
0.114801
0.0627212
0.0172052
-0.0175314
-0.0400427
-0.0498225
-0.0490122
-0.0839161
-0.116586
-0.153403
-0.191163
-0.227607
-0.259076
-0.282685
-0.295724
-0.296246
-0.282734
-0.254884
-0.213737
-0.161717
-0.102461
-0.0405287
0.0190456
0.0712814
0.111806
0.137357
0.146192
0.138314
0.115494
0.0810459
0.0394399
-0.00427655
-0.0437694
-0.074849
-0.0942772
-0.101465
-0.0966346
-0.0825994
-0.108856
-0.146081
-0.184658
-0.22078
-0.252187
-0.275599
-0.289085
-0.291228
-0.28205
-0.261569
-0.230796
-0.191708
-0.147154
-0.100638
-0.0560235
-0.0171727
0.0124529
0.0301812
0.0344523
0.0250654
0.00325316
-0.0283948
-0.0662061
-0.10581
-0.142663
-0.170838
-0.187296
-0.189995
-0.179521
-0.157108
-0.126619
-0.126811
-0.165327
-0.201701
-0.23156
-0.252724
-0.262451
-0.259977
-0.245439
-0.221083
-0.188756
-0.151071
-0.111182
-0.0725555
-0.038668
-0.0127187
0.00266438
0.0056797
-0.0044338
-0.0272688
-0.0611894
-0.103423
-0.150261
-0.197403
-0.240351
-0.274899
-0.295389
-0.299881
-0.287554
-0.260303
-0.220503
-0.173248
-0.132037
-0.167419
-0.197067
-0.216222
-0.22291
-0.215056
-0.193121
-0.158841
-0.116546
-0.0699054
-0.0231321
0.0194265
0.0536554
0.0760477
0.0840004
0.0760414
0.0519575
0.0128447
-0.0389489
-0.0999403
-0.165767
-0.23151
-0.292114
-0.342802
-0.379538
-0.396821
-0.393627
-0.370217
-0.329719
-0.275598
-0.21411
-0.122645
-0.150858
-0.170374
-0.17638
-0.167235
-0.141583
-0.100965
-0.0484693
0.0100339
0.0694323
0.124265
0.169276
0.19988
0.212595
0.205337
0.177595
0.130457
0.0665308
-0.0102614
-0.0949411
-0.181856
-0.2651
-0.338995
-0.398517
-0.439733
-0.457304
-0.450876
-0.421512
-0.373267
-0.310421
-0.240003
-0.101523
-0.120279
-0.128637
-0.122066
-0.0993345
-0.0597575
-0.00562445
0.0591211
0.127878
0.194755
0.25367
0.298969
0.325944
0.331279
0.31334
0.272301
0.210104
0.130301
0.0377551
-0.0617025
-0.161723
-0.255916
-0.338344
-0.403951
-0.448972
-0.468364
-0.462178
-0.431911
-0.38209
-0.317361
-0.244993
-0.0741257
-0.083704
-0.0829127
-0.067882
-0.0377977
0.00748588
0.065482
0.132099
0.201005
0.266437
0.322546
0.363996
0.386457
0.387023
0.364458
0.319298
0.25378
0.171649
0.077847
-0.0218473
-0.121264
-0.214298
-0.295381
-0.359863
-0.404369
-0.424436
-0.420266
-0.39358
-0.348596
-0.289753
-0.223721
-0.0470642
-0.0499693
-0.0442145
-0.0268082
0.00270456
0.0442704
0.0955521
0.153066
0.211642
0.266487
0.312779
0.346166
0.363165
0.361502
0.340306
0.300177
0.243121
0.172375
0.0921394
0.00726986
-0.0770963
-0.155913
-0.224611
-0.279412
-0.317603
-0.335663
-0.333911
-0.313457
-0.278029
-0.231251
-0.178555
-0.0249752
-0.0243496
-0.0178871
-0.00352262
0.0189266
0.0493891
0.0861634
0.126746
0.167687
0.205698
0.237489
0.2601
0.27118
0.269214
0.253651
0.224951
0.184536
0.134669
0.078269
0.0186959
-0.0405031
-0.0958464
-0.144188
-0.182928
-0.210205
-0.22375
-0.223559
-0.210302
-0.18679
-0.155453
-0.120162
-0.0236306
-0.0265944
-0.0256689
-0.0199988
-0.00920378
0.00667899
0.0268659
0.0500461
0.0741157
0.0971751
0.117313
0.132791
0.142206
0.144619
0.139635
0.127425
0.108695
0.0846197
0.056731
0.0268031
-0.0032925
-0.0317316
-0.0568742
-0.0773715
-0.0922536
-0.100322
-0.101607
-0.0966848
-0.0866045
-0.072578
-0.0562143
-0.0426616
-0.0489642
-0.0493336
-0.042109
-0.0268077
-0.00365862
0.0261488
0.0605494
0.0960921
0.129814
0.1588
0.180491
0.192925
0.194925
0.18619
0.167294
0.139595
0.105084
0.0661825
0.0255361
-0.01422
-0.0506742
-0.0818088
-0.10612
-0.122685
-0.130296
-0.129558
-0.121585
-0.107626
-0.0893598
-0.0685763
-0.0703166
-0.0825105
-0.0867134
-0.0803826
-0.0628389
-0.0344179
0.00322955
0.0470919
0.0922368
0.134611
0.17034
0.196168
0.209788
0.210064
0.197109
0.172217
0.137661
0.096414
0.0518204
0.00726256
-0.0341629
-0.069917
-0.0981819
-0.117941
-0.128955
-0.130926
-0.125183
-0.113701
-0.0977666
-0.0792326
-0.0594984
-0.105944
-0.126709
-0.137497
-0.13472
-0.117527
-0.0862082
-0.0430926
0.00780519
0.0599765
0.1083
0.148044
0.175447
0.188131
0.18534
0.167962
0.138352
0.0999621
0.0568955
0.0134011
-0.0266074
-0.0599717
-0.084591
-0.0995384
-0.105033
-0.102251
-0.0928216
-0.0792821
-0.0642105
-0.0490107
-0.035257
-0.0233256
-0.146509
-0.177497
-0.19638
-0.198565
-0.18305
-0.150121
-0.102829
-0.0462883
0.0113122
0.0637802
0.105597
0.132646
0.142697
0.135653
0.113485
0.0798995
0.0397682
-0.00153953
-0.0388601
-0.067897
-0.0857388
-0.0911731
-0.0847208
-0.0684484
-0.0455466
-0.0203974
0.00296435
0.0212026
0.032998
0.0373563
0.0355777
-0.187989
-0.229259
-0.256031
-0.26273
-0.248239
-0.212866
-0.160504
-0.0974952
-0.0338353
0.0231202
0.0670129
0.0933711
0.10017
0.0880826
0.060312
0.0220896
-0.0201269
-0.059558
-0.0900329
-0.106849
-0.107396
-0.0914786
-0.0612569
-0.0208806
0.0241958
0.0664491
0.100216
0.121389
0.128681
0.121791
0.103878
-0.224888
-0.274597
-0.307266
-0.316344
-0.300663
-0.260628
-0.201062
-0.129625
-0.058175
0.00467463
0.0516317
0.0777836
0.0812413
0.0633964
0.0286649
-0.0161864
-0.0630653
-0.103698
-0.130786
-0.139073
-0.126076
-0.0924327
-0.0417575
0.0198865
0.0849203
0.142839
0.186416
0.210771
0.214485
0.197826
0.165588
-0.253255
-0.308484
-0.344079
-0.352613
-0.332931
-0.285614
-0.216429
-0.134368
-0.0530869
0.0174825
0.0690141
0.0960062
0.0965168
0.0724443
0.0292046
-0.0250787
-0.0807913
-0.128181
-0.158721
-0.166363
-0.148388
-0.105784
-0.0430737
0.0323421
0.111296
0.181034
0.233034
0.261665
0.265113
0.243856
0.20365
-0.270924
-0.328501
-0.364132
-0.369675
-0.344027
-0.287989
-0.208157
-0.114703
-0.0228286
0.056301
0.113319
0.142021
0.140186
0.109903
0.0572167
-0.00876337
-0.0772098
-0.13708
-0.178636
-0.194843
-0.182329
-0.141827
-0.0779977
0.00125237
0.0859885
0.162364
0.221005
0.255602
0.263672
0.245426
0.206618
-0.278033
-0.335426
-0.369248
-0.370845
-0.33917
-0.275193
-0.186073
-0.0828092
0.0183291
0.105221
0.167607
0.19856
0.195384
0.159989
0.098558
0.0206406
-0.0622385
-0.138148
-0.196351
-0.228786
-0.231109
-0.203205
-0.149079
-0.0762011
0.00568054
0.0830024
0.146113
0.188184
0.205878
0.198672
0.171288
-0.276379
-0.332235
-0.363952
-0.362607
-0.32714
-0.258547
-0.164124
-0.0551467
0.0517358
0.143926
0.210601
0.244227
0.241504
0.203798
0.136872
0.0500379
-0.0451843
-0.136598
-0.21292
-0.265252
-0.288174
-0.280313
-0.244344
-0.18644
-0.115223
-0.0426333
0.0220588
0.0717964
0.102368
0.11221
0.104148
-0.26815
-0.322248
-0.352933
-0.351271
-0.316077
-0.248133
-0.154339
-0.0455577
0.0620235
0.155972
0.225387
0.26237
0.262988
0.227746
0.161421
0.0723425
-0.0287996
-0.130345
-0.22113
-0.291874
-0.336238
-0.351455
-0.338439
-0.301417
-0.247102
-0.18472
-0.122474
-0.0672242
-0.0238583
0.00497435
0.0197021
-0.254751
-0.307441
-0.338778
-0.340084
-0.309913
-0.248547
-0.161942
-0.0598055
0.0430289
0.135012
0.205734
0.247279
0.255138
0.228725
0.171323
0.0895586
-0.00755717
-0.109777
-0.206868
-0.289805
-0.351743
-0.38866
-0.399583
-0.386424
-0.353446
-0.306468
-0.251979
-0.196107
-0.144016
-0.0992068
-0.0636825
-0.236265
-0.287694
-0.321011
-0.328049
-0.306988
-0.257355
-0.183677
-0.0938467
-0.000510632
0.0863516
0.157394
0.205064
0.224424
0.213671
0.174218
0.110394
0.0287826
-0.0626027
-0.155268
-0.241167
-0.31352
-0.367414
-0.400135
-0.411211
-0.402198
-0.375267
-0.334666
-0.285213
-0.23183
-0.178407
-0.128968
-0.211943
-0.261505
-0.297062
-0.31119
-0.301653
-0.267051
-0.210161
-0.136582
-0.0561134
0.0233816
0.0941093
0.149248
0.183629
0.194243
0.180442
0.143884
0.088206
0.0185649
-0.0589517
-0.137938
-0.212272
-0.276645
-0.326955
-0.360537
-0.376267
-0.372849
-0.351957
-0.316599
-0.270913
-0.218621
-0.165041
-0.181526
-0.227853
-0.264754
-0.285717
-0.288141
-0.269649
-0.231161
-0.175757
-0.110002
-0.0393088
0.0304118
0.0933661
0.144388
0.179405
0.195741
0.192299
0.169567
0.129537
0.0754917
0.0117322
-0.0567857
-0.124857
-0.187457
-0.240121
-0.279326
-0.300817
-0.303624
-0.28863
-0.258751
-0.21703
-0.169222
-0.146718
-0.188292
-0.225062
-0.251514
-0.264795
-0.26164
-0.241206
-0.204126
-0.153661
-0.0927091
-0.025167
0.0443875
0.111025
0.169868
0.216472
0.247202
0.259556
0.252419
0.226215
0.182951
0.126107
0.0603599
-0.00883254
-0.0757245
-0.13487
-0.179774
-0.207039
-0.215384
-0.206262
-0.181688
-0.147083
-0.111935
-0.148045
-0.1836
-0.214041
-0.23641
-0.246732
-0.24268
-0.222759
-0.187224
-0.136659
-0.0730379
0.000322923
0.0789271
0.157423
0.230035
0.291084
0.33556
0.359663
0.361248
0.340155
0.298305
0.239577
0.169419
0.0942958
0.0209644
-0.042636
-0.091172
-0.121454
-0.133479
-0.128126
-0.109938
-0.0836953
-0.115245
-0.149724
-0.183343
-0.21316
-0.234713
-0.244586
-0.239677
-0.217869
-0.177885
-0.120091
-0.046654
0.0384757
0.129816
0.220796
0.304374
0.373766
0.423192
0.448532
0.447857
0.421697
0.373039
0.306985
0.230188
0.150057
0.0752039
0.0122141
-0.0343383
-0.0632328
-0.0743522
-0.0711457
-0.0686235
-0.0982971
-0.133266
-0.170198
-0.206221
-0.236606
-0.257305
-0.264255
-0.253883
-0.223706
-0.172992
-0.103041
-0.0172648
0.0790099
0.178968
0.274955
0.359288
0.425089
0.467063
0.482132
0.469815
0.432298
0.374153
0.301788
0.222654
0.145377
0.0770276
0.0228716
-0.0150877
-0.0360673
-0.0425429
-0.0708014
-0.102349
-0.140153
-0.180951
-0.221915
-0.258253
-0.285752
-0.300096
-0.297339
-0.274591
-0.230683
-0.166479
-0.0849953
0.00876928
0.10823
0.205846
0.293915
0.365409
0.414755
0.438491
0.435661
0.407924
0.359311
0.295718
0.224157
0.152789
0.0884417
0.0363327
-0.00129929
-0.0234617
-0.0320482
-0.0895976
-0.126429
-0.168908
-0.213451
-0.257219
-0.295538
-0.324484
-0.340192
-0.339455
-0.319823
-0.280429
-0.222239
-0.148135
-0.0627475
0.027915
0.11703
0.197673
0.263558
0.309734
0.333159
0.333043
0.310939
0.270507
0.21706
0.15688
0.0974062
0.0446387
0.00307888
-0.0253736
-0.0400145
-0.0427131
-0.119117
-0.162756
-0.209887
-0.256304
-0.299115
-0.333948
-0.357592
-0.367267
-0.361487
-0.339035
-0.300064
-0.246197
-0.180516
-0.107352
-0.0319426
0.0400479
0.103101
0.152426
0.184487
0.197425
0.191284
0.168012
0.131222
0.0857616
0.0371149
-0.00804601
-0.044919
-0.0702191
-0.0829065
-0.0830294
-0.0730316
-0.149688
-0.198799
-0.247961
-0.29222
-0.328657
-0.353399
-0.364303
-0.360188
-0.341964
-0.310268
-0.26685
-0.214459
-0.156692
-0.0977139
-0.041926
0.006421
0.0436273
0.0669287
0.074804
0.067195
0.0455563
0.0127398
-0.0272997
-0.0699191
-0.110317
-0.142457
-0.162876
-0.169793
-0.163409
-0.14489
-0.117758
-0.171018
-0.221512
-0.267865
-0.304442
-0.328416
-0.336605
-0.32819
-0.303882
-0.267249
-0.221117
-0.169139
-0.115465
-0.0644136
-0.0201038
0.0138723
0.034748
0.0408097
0.0315702
0.00783994
-0.0282762
-0.0735276
-0.12378
-0.174389
-0.220618
-0.258121
-0.281276
-0.287902
-0.277762
-0.252495
-0.21458
-0.168916
-0.175847
-0.222134
-0.260047
-0.283529
-0.290011
-0.277164
-0.245577
-0.197887
-0.140119
-0.0772459
-0.0148044
0.0416635
0.0870926
0.117353
0.129583
0.122411
0.0960237
0.0521508
-0.00608814
-0.0743972
-0.147645
-0.220274
-0.286759
-0.342053
-0.382031
-0.401274
-0.398679
-0.375382
-0.334429
-0.2796
-0.217184
-0.161875
-0.198812
-0.223981
-0.231319
-0.218697
-0.184691
-0.131154
-0.0623214
0.0140144
0.091209
0.162291
0.220684
0.260801
0.278572
0.271774
0.240188
0.185557
0.111409
0.0227387
-0.0743719
-0.173246
-0.267136
-0.349752
-0.415729
-0.461045
-0.480407
-0.473505
-0.442491
-0.391509
-0.325362
-0.251373
-0.133068
-0.157754
-0.168811
-0.1606
-0.131545
-0.0810395
-0.0118401
0.07083
0.15841
0.243389
0.318114
0.375586
0.410113
0.417843
0.397095
0.348463
0.274699
0.180448
0.0718264
-0.0440513
-0.159646
-0.267579
-0.36119
-0.435006
-0.485134
-0.506499
-0.499275
-0.466135
-0.411846
-0.341733
-0.263562
-0.0966264
-0.109444
-0.108845
-0.0900941
-0.0521636
0.00490225
0.0780985
0.162088
0.248753
0.330812
0.400958
0.452624
0.480595
0.481513
0.454154
0.399512
0.320651
0.222419
0.111012
-0.00650663
-0.122767
-0.230662
-0.32387
-0.397293
-0.447397
-0.469604
-0.464264
-0.434241
-0.384054
-0.318885
-0.245948
-0.0611932
-0.0653932
-0.0584247
-0.036677
0.000398721
0.0525554
0.116944
0.189047
0.262273
0.330579
0.387962
0.429072
0.449725
0.447297
0.420958
0.371712
0.302281
0.216843
0.12067
0.0197204
-0.0798372
-0.172082
-0.251785
-0.314752
-0.358108
-0.378181
-0.375452
-0.351925
-0.311653
-0.25888
-0.199586
-0.0326442
-0.0322389
-0.0242413
-0.00621738
0.0220519
0.0603663
0.106619
0.157564
0.208789
0.256141
0.295506
0.323236
0.336495
0.333532
0.313831
0.278143
0.2284
0.167537
0.0992401
0.0276607
-0.0429065
-0.108339
-0.164997
-0.209962
-0.241232
-0.256409
-0.255583
-0.240008
-0.212806
-0.17686
-0.136444
0.00618679
0.0127039
0.0228927
0.036916
0.054698
0.0757883
0.0991681
0.12347
0.147002
0.168041
0.184913
0.196157
0.200651
0.197728
0.18723
0.16953
0.145491
0.116403
0.0838755
0.0497257
0.0158417
-0.0159552
-0.0440407
-0.0670887
-0.0841552