# vtk DataFile Version 2.0
Func
ASCII
DATASET RECTILINEAR_GRID
DIMENSIONS 31 31 31
X_COORDINATES 31 double
-9.67742
-9.03226
-8.3871
-7.74194
-7.09677
-6.45161
-5.80645
-5.16129
-4.51613
-3.87097
-3.22581
-2.58065
-1.93548
-1.29032
-0.645161
0
0.645161
1.29032
1.93548
2.58065
3.22581
3.87097
4.51613
5.16129
5.80645
6.45161
7.09677
7.74194
8.3871
9.03226
9.67742
Y_COORDINATES 31 double
-9.67742
-9.03226
-8.3871
-7.74194
-7.09677
-6.45161
-5.80645
-5.16129
-4.51613
-3.87097
-3.22581
-2.58065
-1.93548
-1.29032
-0.645161
0
0.645161
1.29032
1.93548
2.58065
3.22581
3.87097
4.51613
5.16129
5.80645
6.45161
7.09677
7.74194
8.3871
9.03226
9.67742
Z_COORDINATES 31 double
-9.67742
-9.03226
-8.3871
-7.74194
-7.09677
-6.45161
-5.80645
-5.16129
-4.51613
-3.87097
-3.22581
-2.58065
-1.93548
-1.29032
-0.645161
0
0.645161
1.29032
1.93548
2.58065
3.22581
3.87097
4.51613
5.16129
5.80645
6.45161
7.09677
7.74194
8.3871
9.03226
9.67742
POINT_DATA 29791
SCALARS data double 1
LOOKUP_TABLE default
-0.00892728
-0.0139694
-0.0202392
-0.0273665
-0.0347526
-0.0414696
-0.0465876
-0.0491862
-0.0484328
-0.0438428
-0.0353649
-0.0234537
-0.00907135
0.00638161
0.0212025
0.0335769
0.0418014
0.0445071
0.0408533
0.0306808
0.0145797
-0.0061318
-0.0295492
-0.0533733
-0.0752064
-0.092006
-0.101935
-0.103826
-0.0983377
-0.0860046
-0.069487
-0.0202384
-0.0298323
-0.0412151
-0.0535904
-0.0659906
-0.0769393
-0.0850212
-0.0888837
-0.0874005
-0.0799035
-0.0663775
-0.047555
-0.0249139
-0.00056887
0.0229319
0.0428865
0.0567644
0.0625311
0.0589292
0.0457008
0.023679
-0.00524468
-0.038324
-0.0722426
-0.103528
-0.12771
-0.142282
-0.145563
-0.138287
-0.121365
-0.0980731
-0.0369593
-0.0523511
-0.0697143
-0.0877258
-0.105055
-0.11976
-0.130101
-0.134447
-0.131674
-0.121094
-0.102827
-0.0778889
-0.0481773
-0.0163302
0.0145238
0.0411011
0.0603463
0.0698131
0.0679911
0.054561
0.0304984
-0.00197875
-0.0396459
-0.0786144
-0.114809
-0.143022
-0.160184
-0.164597
-0.156869
-0.138026
-0.111732
-0.0571815
-0.0788221
-0.102141
-0.125276
-0.14661
-0.163948
-0.175411
-0.179357
-0.175013
-0.16187
-0.140267
-0.111453
-0.0775502
-0.0413895
-0.00625047
0.0244798
0.0476844
0.0608887
0.0625758
0.0524245
0.0314008
0.0016957
-0.0335148
-0.0704071
-0.104984
-0.132223
-0.149089
-0.153796
-0.146974
-0.129493
-0.104953
-0.0769087
-0.104108
-0.132314
-0.159221
-0.18306
-0.2016
-0.21308
-0.2161
-0.210488
-0.196065
-0.173425
-0.143945
-0.109724
-0.0734182
-0.0379991
-0.00646177
0.0184868
0.0347296
0.0409869
0.036994
0.0235595
0.00249817
-0.023579
-0.0515444
-0.0781486
-0.0993952
-0.112758
-0.11677
-0.111903
-0.0987372
-0.0803046
-0.0904106
-0.121044
-0.151919
-0.180551
-0.205176
-0.223733
-0.234751
-0.237189
-0.231502
-0.217844
-0.196986
-0.170274
-0.139547
-0.106989
-0.0749351
-0.0456568
-0.0211537
-0.00295679
0.00802243
0.0115867
0.00827035
-0.000725174
-0.0136851
-0.0285737
-0.0433011
-0.0554112
-0.0631931
-0.0656643
-0.0631085
-0.0557206
-0.0457044
-0.091956
-0.122467
-0.152723
-0.180429
-0.204004
-0.221734
-0.2325
-0.235602
-0.231877
-0.221656
-0.205689
-0.185074
-0.161173
-0.135495
-0.109564
-0.0847959
-0.062399
-0.0432824
-0.0280038
-0.0167522
-0.00936427
-0.00537704
-0.00411222
-0.00476719
-0.00653999
-0.00865255
-0.0102981
-0.0110154
-0.0108679
-0.00965887
-0.00850724
-0.0775295
-0.103429
-0.129162
-0.153037
-0.173832
-0.190293
-0.201603
-0.207235
-0.207938
-0.203919
-0.195618
-0.183641
-0.168708
-0.151571
-0.132962
-0.113531
-0.0938428
-0.0743574
-0.0554466
-0.0374247
-0.0205765
-0.00518434
0.00845636
0.0200374
0.0292396
0.0354041
0.0385815
0.0388324
0.036342
0.0316635
0.0247687
-0.0468521
-0.0636789
-0.0811597
-0.0985538
-0.115144
-0.130186
-0.143036
-0.153084
-0.160433
-0.164811
-0.166034
-0.164
-0.158681
-0.15011
-0.138371
-0.123607
-0.106037
-0.085981
-0.0638909
-0.040385
-0.0162589
0.00752681
0.0298925
0.0497073
0.0658814
0.076783
0.0820099
0.0814551
0.0755954
0.0652986
0.0515196
-0.00418744
-0.0087287
-0.0154004
-0.0245957
-0.0361752
-0.0498872
-0.0650779
-0.0808065
-0.0960416
-0.109723
-0.120806
-0.128348
-0.13157
-0.12991
-0.123058
-0.110977
-0.0939093
-0.0723891
-0.0472313
-0.0195314
0.00937365
0.0379649
0.0646375
0.0878052
0.106037
0.117271
0.121034
0.117316
0.106942
0.0910652
0.0714224
0.0421097
0.0507308
0.0554051
0.0546515
0.0480593
0.035482
0.0177433
-0.00371214
-0.0264762
-0.0485553
-0.0679688
-0.0829473
-0.092074
-0.0943988
-0.0894933
-0.077458
-0.0588847
-0.0348012
-0.00659271
0.0240721
0.0553453
0.0853111
0.112113
0.134068
0.149801
0.157309
0.156385
0.147349
0.131401
0.109964
0.0852936
0.0816055
0.101393
0.115563
0.121825
0.119359
0.107775
0.0881561
0.0624739
0.0344044
0.00678264
-0.0176252
-0.0364191
-0.0477761
-0.0506075
-0.0446141
-0.0302607
-0.00866794
0.0185228
0.049313
0.0815024
0.112859
0.14127
0.164886
0.182217
0.192234
0.193332
0.185787
0.170357
0.148598
0.122151
0.0935055
0.104878
0.131286
0.15107
0.161578
0.16181
0.15132
0.131436
0.104504
0.075
0.0462597
0.021463
0.00327592
-0.00639802
-0.00658981
0.00269657
0.0205524
0.0453386
0.0748921
0.10676
0.13842
0.167491
0.191909
0.210058
0.220838
0.223715
0.217653
0.203446
0.182252
0.155868
0.126051
0.0952262
0.106662
0.133794
0.154343
0.165802
0.167254
0.15837
0.140602
0.11637
0.0902246
0.0654812
0.0452112
0.0318825
0.027119
0.0315468
0.0447877
0.0655641
0.0919165
0.121449
0.151594
0.179859
0.204042
0.222393
0.233721
0.237417
0.233455
0.221387
0.202382
0.177819
0.149533
0.11922
0.0889694
0.0878949
0.11025
0.127224
0.13688
0.138611
0.132315
0.119364
0.101878
0.0836978
0.0675468
0.0558459
0.0504147
0.0522852
0.0616007
0.077646
0.0989764
0.12364
0.149416
0.174063
0.195534
0.212156
0.222746
0.22667
0.223824
0.214595
0.199023
0.178394
0.15403
0.127551
0.100372
0.0740339
0.0557524
0.0699404
0.0808856
0.0874566
0.0894651
0.0870477
0.0812694
0.0736106
0.0665756
0.0618398
0.0607649
0.0642121
0.0724467
0.0851094
0.101283
0.119625
0.138555
0.156441
0.17178
0.18334
0.190257
0.192084
0.188787
0.180702
0.168458
0.152404
0.133641
0.113153
0.0921068
0.0714268
0.0520052
0.0215114
0.0273078
0.0324147
0.0364848
0.0397107
0.0423646
0.0450247
0.0483196
0.0531477
0.059933
0.0688327
0.0796825
0.0920053
0.105058
0.117925
0.12963
0.13926
0.14607
0.149557
0.149501
0.145964
0.139253
0.129867
0.118424
0.10559
0.0917964
0.0776997
0.0637362
0.0504742
0.038233
0.0272985
-0.00309588
-0.0027634
-0.000828802
0.0028787
0.00874917
0.017001
0.0276511
0.0404686
0.0549153
0.0702903
0.085724
0.100242
0.112863
0.122703
0.129071
0.131552
0.130051
0.124795
0.116305
0.105325
0.0927326
0.0794241
0.0662264
0.0538175
0.0426838
0.0330891
0.025095
0.0185157
0.0133212
0.00925794
0.00619814
-0.00971555
-0.00985422
-0.00699115
-0.000874706
0.0088128
0.0220151
0.0382492
0.056635
0.0757633
0.0942421
0.110643
0.123635
0.132137
0.135432
0.133258
0.12584
0.113856
0.0983612
0.0806632
0.0621757
0.0442565
0.0280586
0.0144273
0.00383886
-0.00359563
-0.00801333
-0.00996216
-0.0101741
-0.00912264
-0.00744805
-0.00538889
0.00402777
0.00872839
0.0165503
0.0273375
0.0410654
0.0572192
0.0750025
0.0932643
0.110521
0.125315
0.136291
0.142338
0.142733
0.137236
0.12614
0.110253
0.0908189
0.0693761
0.0475923
0.027077
0.00920098
-0.00505071
-0.01516
-0.0210979
-0.0232642
-0.0223641
-0.0194422
-0.0155807
-0.0114352
-0.00774518
-0.00453186
0.0341016
0.0475247
0.062889
0.0792193
0.0959647
0.112063
0.126663
0.138788
0.147674
0.152435
0.152406
0.14723
0.136933
0.121964
0.10319
0.0818416
0.059402
0.0374631
0.0175548
0.000974843
-0.0113615
-0.0190253
-0.0221048
-0.0211754
-0.0171838
-0.0114444
-0.005298
7.48856e-05
0.00411496
0.00627521
0.0069967
0.0718549
0.0953433
0.118651
0.139753
0.157527
0.170393
0.177706
0.179041
0.174924
0.165503
0.151231
0.132832
0.111292
0.0877994
0.0637001
0.0404095
0.0193174
0.00166719
-0.0115641
-0.0197777
-0.0228326
-0.0210781
-0.0153204
-0.0067407
0.00326063
0.0128904
0.0207448
0.0257779
0.0277258
0.0264224
0.0228371
0.107215
0.13943
0.169025
0.192921
0.209527
0.216883
0.214729
0.203402
0.184905
0.160586
0.132123
0.10136
0.0701901
0.040419
0.0136702
-0.00869991
-0.0256625
-0.0365773
-0.0412344
-0.0398801
-0.0332081
-0.022315
-0.00860761
0.00631335
0.0208213
0.0329517
0.0414533
0.0455692
0.0453797
0.0411114
0.0341
0.131949
0.169618
0.202597
0.226969
0.240879
0.24219
0.231075
0.208624
0.178096
0.141865
0.102604
0.0630099
0.0255991
-0.00749018
-0.0346093
-0.0546654
-0.0671261
-0.0720072
-0.0698275
-0.0615448
-0.0484676
-0.0321494
-0.0142646
0.00351514
0.0196631
0.032477
0.0410195
0.0448628
0.0443234
0.0398467
0.0327792
0.141816
0.18095
0.21423
0.237269
0.248189
0.244884
0.227879
0.198792
0.161615
0.119307
0.0750539
0.031923
-0.00738718
-0.0407649
-0.0667873
-0.0847485
-0.0946038
-0.0968862
-0.0925872
-0.0830208
-0.0696848
-0.0541285
-0.0378339
-0.022121
-0.00806686
0.00334141
0.0115623
0.0164475
0.0183232
0.0175614
0.0150688
0.137049
0.174114
0.20529
0.226144
0.23499
0.229913
0.211618
0.18191
0.144852
0.103438
0.0607865
0.0197892
-0.0171362
-0.0482439
-0.0725271
-0.0896974
-0.100075
-0.104451
-0.103922
-0.0997116
-0.0930226
-0.0849163
-0.0762367
-0.0675772
-0.0592843
-0.0512882
-0.0437215
-0.0365683
-0.0297414
-0.0232467
-0.0170188
0.120917
0.153422
0.181003
0.199571
0.20776
0.203951
0.188832
0.164043
0.133139
0.0986483
0.0631343
0.0288727
-0.00234525
-0.0293595
-0.0516587
-0.0693133
-0.0828289
-0.0929798
-0.100627
-0.106539
-0.111263
-0.115051
-0.11785
-0.119342
-0.119041
-0.115731
-0.109197
-0.099376
-0.0865881
-0.0713979
-0.0547462
0.0984251
0.125153
0.148498
0.164996
0.173647
0.173157
0.164047
0.147546
0.126337
0.102192
0.0768454
0.051741
0.0279045
0.00586275
-0.0143263
-0.0329727
-0.0505932
-0.0677421
-0.0848448
-0.102041
-0.1191
-0.135409
-0.150022
-0.161776
-0.169459
-0.170912
-0.165683
-0.153737
-0.135841
-0.113106
-0.087428
0.0736508
0.0941766
0.112865
0.127079
0.136148
0.139125
0.136277
0.128346
0.11706
0.103405
0.0882854
0.0723646
0.0559951
0.0391996
0.0217318
0.00318912
-0.0168362
-0.0386095
-0.0621218
-0.0869715
-0.112329
-0.136967
-0.159365
-0.177856
-0.190834
-0.195671
-0.191807
-0.179394
-0.159379
-0.133225
-0.103287
0.0497636
0.0641782
0.0779547
0.0892682
0.0977257
0.102631
0.104119
0.102502
0.0986929
0.0930692
0.0859254
0.0773797
0.0673583
0.0556089
0.0417715
0.0254785
0.00647554
-0.0152679
-0.0394678
-0.0654502
-0.092151
-0.118164
-0.141863
-0.161544
-0.175624
-0.181631
-0.17913
-0.168063
-0.149585
-0.12511
-0.0969877
0.0293287
0.0381673
0.0470562
0.0548743
0.0614183
0.0662039
0.0692658
0.0706884
0.0708226
0.0697036
0.0673057
0.0635006
0.0580653
0.0507057
0.0411142
0.0290409
0.0143732
-0.00279593
-0.0221161
-0.0429418
-0.0643436
-0.0851552
-0.104075
-0.119774
-0.131045
-0.136115
-0.134552
-0.126297
-0.112417
-0.0939465
-0.0728384
-0.014566
-0.0229771
-0.0334224
-0.0455047
-0.058243
-0.0701756
-0.0798332
-0.085693
-0.0863748
-0.0810234
-0.0694481
-0.0522469
-0.0308161
-0.00725
0.0158643
0.0357372
0.0497195
0.055647
0.0521424
0.0388575
0.0165792
-0.0127968
-0.0464711
-0.0810325
-0.11289
-0.137385
-0.151901
-0.154714
-0.146563
-0.12836
-0.103549
-0.0297538
-0.0445089
-0.0621818
-0.0818816
-0.102073
-0.120523
-0.135055
-0.143473
-0.143918
-0.135218
-0.117179
-0.09075
-0.0580266
-0.0220993
0.0132479
0.0439548
0.0661773
0.0767778
0.0737554
0.0565908
0.0263872
-0.0141746
-0.0611225
-0.109615
-0.154544
-0.189134
-0.209977
-0.214693
-0.203931
-0.179067
-0.144485
-0.0510156
-0.0732745
-0.0987621
-0.125952
-0.152817
-0.176545
-0.194504
-0.204052
-0.203303
-0.191023
-0.167163
-0.133026
-0.091254
-0.0456311
-0.000721503
0.0386277
0.0678577
0.0832683
0.0825111
0.064981
0.0319729
-0.01339
-0.0664866
-0.121699
-0.173101
-0.212887
-0.236909
-0.242851
-0.231124
-0.203276
-0.16426
-0.0759142
-0.105772
-0.13845
-0.171751
-0.203312
-0.23011
-0.249336
-0.258317
-0.255665
-0.240397
-0.212755
-0.17433
-0.128027
-0.0778368
-0.0284613
0.0151865
0.0485406
0.0679343
0.0710705
0.0573842
0.0281789
-0.0134608
-0.0630042
-0.114966
-0.16359
-0.201404
-0.224353
-0.230003
-0.218911
-0.192465
-0.155559
-0.0998809
-0.136139
-0.174226
-0.211364
-0.24507
-0.272443
-0.290892
-0.298102
-0.293594
-0.276883
-0.248584
-0.210453
-0.165313
-0.116831
-0.0691779
-0.0265936
0.00705981
0.028743
0.0366028
0.0302382
0.0107842
-0.0191846
-0.055951
-0.0950596
-0.13188
-0.160521
-0.177656
-0.181348
-0.172106
-0.150952
-0.122006
-0.116132
-0.156048
-0.196633
-0.234829
-0.268251
-0.294392
-0.311127
-0.316709
-0.311633
-0.29596
-0.270604
-0.237296
-0.198476
-0.157089
-0.116319
-0.0792658
-0.0486591
-0.0265685
-0.0141918
-0.0117192
-0.0183148
-0.0322155
-0.0509535
-0.0716364
-0.091324
-0.106422
-0.11474
-0.115073
-0.107889
-0.0937275
-0.0755911
-0.117586
-0.156776
-0.195809
-0.231801
-0.262692
-0.286543
-0.301795
-0.307279
-0.304153
-0.29283
-0.274287
-0.249966
-0.221654
-0.191327
-0.160964
-0.132363
-0.107009
-0.0859529
-0.0697474
-0.0584374
-0.0515969
-0.04842
-0.0478542
-0.048737
-0.0499716
-0.0504213
-0.0491393
-0.0457106
-0.0405296
-0.0336405
-0.0266818
-0.0989543
-0.13191
-0.164695
-0.195123
-0.221666
-0.243007
-0.258079
-0.266087
-0.268188
-0.264743
-0.256405
-0.244022
-0.228539
-0.210898
-0.19194
-0.172334
-0.152567
-0.132941
-0.113617
-0.0946815
-0.0762151
-0.0583536
-0.0413359
-0.0255153
-0.0113609
0.000211038
0.00912917
0.0151871
0.018131
0.0183659
0.0155553
-0.0594807
-0.080669
-0.102714
-0.124593
-0.145467
-0.164601
-0.181226
-0.194592
-0.205038
-0.212367
-0.21648
-0.217342
-0.214948
-0.209287
-0.200328
-0.188013
-0.172301
-0.153226
-0.130959
-0.1059
-0.0787261
-0.0504086
-0.0221868
0.0045112
0.0281833
0.0465814
0.0590548
0.0651119
0.0647444
0.0587547
0.0479151
-0.00432415
-0.00972416
-0.0179703
-0.0294601
-0.0441147
-0.0616687
-0.0813898
-0.10222
-0.122958
-0.142393
-0.159324
-0.172647
-0.181407
-0.18485
-0.182449
-0.173926
-0.159278
-0.138805
-0.11313
-0.083242
-0.0504776
-0.0164851
0.0168629
0.0475932
0.0737967
0.0927007
0.103615
0.10615
0.100672
0.0883506
0.0707951
0.0557146
0.0671515
0.0732192
0.0721436
0.0632945
0.046636
0.0231038
-0.00567795
-0.0365796
-0.0671384
-0.0949181
-0.117741
-0.13385
-0.142027
-0.141651
-0.132693
-0.115668
-0.091576
-0.0618212
-0.0281538
0.0074342
0.0428125
0.0758362
0.104475
0.126966
0.140699
0.145415
0.141166
0.128784
0.109789
0.0863287
0.106668
0.132215
0.150015
0.157282
0.152868
0.136627
0.109848
0.0747907
0.0363897
-0.00173284
-0.0360753
-0.0636244
-0.0821113
-0.0901825
-0.0874509
-0.0744492
-0.052474
-0.0234119
0.0104588
0.0466447
0.0826296
0.116035
0.144755
0.167068
0.181727
0.186729
0.182518
0.16976
0.149762
0.124344
0.0958954
0.135582
0.169074
0.193325
0.205148
0.20318
0.187349
0.159303
0.121786
0.0808805
0.0409215
0.00599222
-0.0205276
-0.0362704
-0.0400689
-0.0319832
-0.0131946
0.0142439
0.0476831
0.0841764
0.120745
0.154633
0.183496
0.205529
0.219528
0.224921
0.220485
0.207374
0.186819
0.160483
0.130364
0.0987866
0.13501
0.168417
0.192534
0.204471
0.203004
0.188268
0.162129
0.127457
0.0904457
0.0554314
0.0263746
0.00640721
-0.00246851
0.000457414
0.0146164
0.0383166
0.069049
0.103815
0.13947
0.17302
0.201888
0.224086
0.238312
0.243963
0.241096
0.229224
0.209964
0.184848
0.155652
0.124331
0.0928556
0.106122
0.131952
0.150069
0.158475
0.156383
0.144183
0.123701
0.0974688
0.070651
0.0467948
0.0289935
0.0195231
0.019614
0.0293548
0.0477539
0.0729223
0.102378
0.133363
0.163148
0.1893
0.209885
0.223587
0.229747
0.22833
0.219842
0.204338
0.183485
0.15871
0.131595
0.103758
0.0765764
0.0590079
0.0727321
0.081647
0.0849686
0.082488
0.0747919
0.0633616
0.0499471
0.0377842
0.0289888
0.0252205
0.0274756
0.0359835
0.0502019
0.0689245
0.0904608
0.112884
0.134263
0.152876
0.167357
0.176802
0.180785
0.179335
0.172863
0.16206
0.14725
0.129697
0.110312
0.0901772
0.0703024
0.0513406
0.0097786
0.0113711
0.0116569
0.0110084
0.00973574
0.00845039
0.00803401
0.00916808
0.0127784
0.0192653
0.0286529
0.0405668
0.0542725
0.0687665
0.0829137
0.0955962
0.105859
0.113019
0.116727
0.116969
0.114032
0.108415
0.100738
0.0916471
0.0817379
0.0712901
0.0607997
0.050369
0.040388
0.0311014
0.02248
-0.0246437
-0.030688
-0.0348957
-0.0361632
-0.033923
-0.0277786
-0.0175734
-0.00372359
0.0126589
0.0304428
0.0482707
0.0646997
0.0783608
0.0881189
0.0932158
0.0933636
0.0887733
0.080122
0.0684579
0.0550579
0.0412548
0.028257
0.0170162
0.00813559
0.00183906
-0.00195544
-0.00369519
-0.00417262
-0.00370411
-0.0027693
-0.00183921
-0.0321624
-0.0383763
-0.040872
-0.0384949
-0.0308037
-0.0178625
-0.000185263
0.0209728
0.0433217
0.0648216
0.0833998
0.0971857
0.104732
0.105196
0.0984563
0.0851368
0.0665309
0.0444466
0.020987
-0.00170217
-0.0216955
-0.0375178
-0.0482831
-0.0537552
-0.054306
-0.0506652
-0.044178
-0.0363865
-0.0281342
-0.020377
-0.0136249
-0.00942905
-0.00791794
-0.00262952
0.00689319
0.0205809
0.0377295
0.0573855
0.0779447
0.0971363
0.112909
0.123378
0.127056
0.12306
0.111249
0.0922924
0.0676198
0.0392752
0.00968872
-0.0186036
-0.0432588
-0.0624096
-0.074885
-0.0803121
-0.0791207
-0.0724164
-0.0617684
-0.0491849
-0.0366313
-0.0251603
-0.0158158
-0.00868958
0.0374092
0.0523928
0.069357
0.0874481
0.105822
0.123078
0.13817
0.149732
0.156699
0.15792
0.152578
0.140319
0.121368
0.0965695
0.0673833
0.0357827
0.00407916
-0.0253134
-0.0501458
-0.0686023
-0.0795299
-0.0825897
-0.0782851
-0.0678938
-0.0532621
-0.0368219
-0.0208961
-0.00747074
0.00254527
0.00841664
0.0108279
0.0952977
0.12569
0.154926
0.180521
0.200793
0.213731
0.21855
0.214649
0.202992
0.183994
0.158501
0.127759
0.0933746
0.057239
0.0214444
-0.0118476
-0.0405569
-0.0628704
-0.0774271
-0.0834928
-0.081077
-0.0709757
-0.0547085
-0.0343786
-0.0124132
0.0081008
0.0248919
0.036312
0.041866
0.0413875
0.0364514
0.149033
0.192736
0.231708
0.261879
0.280878
0.286283
0.277837
0.256002
0.224019
0.184086
0.138858
0.0912102
0.0440499
0.000117074
-0.038159
-0.0687899
-0.0903145
-0.10189
-0.103351
-0.0952546
-0.0788563
-0.056039
-0.0291663
-0.00089455
0.0260994
0.0485242
0.0644608
0.0728218
0.0736221
0.0672855
0.0560649
0.186201
0.238197
0.28245
0.313688
0.329155
0.326277
0.305419
0.268095
0.219459
0.163222
0.103492
0.0443705
-0.0103606
-0.0575289
-0.0947367
-0.12046
-0.134049
-0.135698
-0.12638
-0.107743
-0.0819753
-0.0516341
-0.0194552
0.0118416
0.039787
0.0615088
0.07563
0.0816581
0.0800244
0.0715115
0.0585454
0.200503
0.2547
0.299496
0.329009
0.340459
0.331371
0.302636
0.256524
0.199274
0.135447
0.0698854
0.00720192
-0.0485958
-0.0944256
-0.12828
-0.149269
-0.157523
-0.154066
-0.140621
-0.119412
-0.0929415
-0.0637849
-0.0344006
-0.00698019
0.016698
0.0348309
0.0466405
0.0521172
0.0518581
0.0466048
0.0382958
0.192491
0.243515
0.285158
0.311586
0.320314
0.309148
0.279272
0.233234
0.177349
0.116199
0.0545001
-0.00342649
-0.0540249
-0.0947931
-0.12438
-0.142557
-0.150042
-0.148286
-0.139219
-0.124978
-0.107678
-0.0892148
-0.0711372
-0.054583
-0.0402553
-0.0283971
-0.019227
-0.0124847
-0.00770679
-0.00461509
-0.00236638
0.167586
0.211747
0.24804
0.271231
0.279328
0.270525
0.246012
0.208124
0.162358
0.112584
0.0626683
0.0159944
-0.0248332
-0.0582029
-0.08352
-0.10111
-0.11199
-0.117619
-0.119611
-0.119469
-0.11838
-0.117089
-0.11586
-0.114515
-0.112546
-0.108503
-0.102175
-0.0932422
-0.0816053
-0.0677157
-0.052141
0.133832
0.169505
0.19967
0.220071
0.229272
0.225863
0.21082
0.185906
0.155253
0.121589
0.0875275
0.0552016
0.0260668
0.00078488
-0.0207294
-0.0391617
-0.0555527
-0.0710416
-0.0866104
-0.102843
-0.119796
-0.136952
-0.153276
-0.167356
-0.177621
-0.181209
-0.177634
-0.166651
-0.14864
-0.124802
-0.0970619
0.0977884
0.124638
0.148363
0.165873
0.17624
0.178471
0.173168
0.161412
0.145859
0.128049
0.109352
0.0907306
0.0726396
0.054996
0.037271
0.0186555
-0.00171301
-0.0245262
-0.0501021
-0.0782026
-0.107973
-0.137975
-0.1663
-0.190777
-0.209239
-0.218083
-0.216713
-0.205203
-0.184124
-0.155163
-0.120983
0.0645843
0.083134
0.100419
0.11443
0.124638
0.130312
0.131828
0.129659
0.125214
0.119112
0.111804
0.103444
0.0938583
0.0825696
0.0689026
0.0521313
0.0316619
0.00720062
-0.0211052
-0.0525486
-0.0858571
-0.119253
-0.150604
-0.177619
-0.198119
-0.208648
-0.208773
-0.198315
-0.178233
-0.150242
-0.1171
0.0374635
0.0487617
0.0598815
0.0697009
0.0779284
0.0840302
0.0881898
0.0905654
0.091708
0.0917127
0.0905488
0.0880068
0.0837045
0.077124
0.0676992
0.0549233
0.0384692
0.0182965
-0.00526707
-0.0314634
-0.0591169
-0.0866955
-0.112442
-0.134533
-0.151272
-0.160161
-0.16066
-0.152606
-0.137086
-0.11547
-0.0900229
-0.0187087
-0.0301039
-0.0444473
-0.0613441
-0.0795354
-0.0971556
-0.1122
-0.122537
-0.126219
-0.121959
-0.109324
-0.0889147
-0.0623871
-0.0323401
-0.00205636
0.0248685
0.0449681
0.0553524
0.0541043
0.0405998
0.015658
-0.0184871
-0.05843
-0.0999613
-0.138601
-0.168509
-0.18628
-0.189962
-0.180187
-0.158058
-0.127573
-0.0344962
-0.0530158
-0.075752
-0.101824
-0.129327
-0.155504
-0.177429
-0.192085
-0.196814
-0.189843
-0.170637
-0.140129
-0.100757
-0.0562836
-0.0114276
0.028666
0.0590505
0.075609
0.0756108
0.0581641
0.0244132
-0.02251
-0.0778215
-0.135611
-0.189579
-0.231325
-0.256447
-0.262325
-0.249361
-0.219203
-0.176972
-0.0549499
-0.0809685
-0.111737
-0.145745
-0.180579
-0.2129
-0.239193
-0.255917
-0.26027
-0.250334
-0.225663
-0.187526
-0.138928
-0.0843808
-0.0294683
0.0197766
0.0575917
0.07921
0.0814927
0.0634376
0.0263965
-0.0260039
-0.0882461
-0.153541
-0.214664
-0.262028
-0.290363
-0.297217
-0.282698
-0.24873
-0.201046
-0.0779144
-0.110704
-0.147816
-0.187092
-0.225835
-0.260616
-0.287732
-0.303716
-0.306307
-0.293877
-0.266285
-0.225075
-0.173463
-0.116086
-0.0585545
-0.00683526
0.0334414
0.0576741
0.0628855
0.0481876
0.0149692
-0.033203
-0.0909723
-0.151792
-0.208745
-0.252764
-0.27882
-0.284363
-0.269775
-0.236819
-0.191197
-0.0999178
-0.137836
-0.178837
-0.220169
-0.259121
-0.292605
-0.317249
-0.330207
-0.330336
-0.316675
-0.289551
-0.250682
-0.203108
-0.150953
-0.0990168
-0.0522626
-0.0152642
0.00833633
0.0162775
0.00801125
-0.0151859
-0.0503256
-0.0930538
-0.138138
-0.18013
-0.211993
-0.229773
-0.231546
-0.21782
-0.189992
-0.152868
-0.115286
-0.155736
-0.197699
-0.238107
-0.274462
-0.304301
-0.324919
-0.334368
-0.332802
-0.320052
-0.296907
-0.265104
-0.227208
-0.186397
-0.146146
-0.109859
-0.0805231
-0.0603776
-0.0506661
-0.0514818
-0.0617523
-0.0793653
-0.101432
-0.124623
-0.145598
-0.160165
-0.16595
-0.16191
-0.148759
-0.127425
-0.10145
-0.117251
-0.156325
-0.195608
-0.232157
-0.263896
-0.289106
-0.305893
-0.313213
-0.312233
-0.303413
-0.287799
-0.266913
-0.242612
-0.216911
-0.191765
-0.16887
-0.149523
-0.134508
-0.124045
-0.117816
-0.11503
-0.114558
-0.115104
-0.115367
-0.114232
-0.110456
-0.103357
-0.092828
-0.0797729
-0.0646728
-0.0496217
-0.0999222
-0.132628
-0.165132
-0.195144
-0.221176
-0.242197
-0.257053
-0.265294
-0.26837
-0.266916
-0.261829
-0.254129
-0.244822
-0.234776
-0.224601
-0.214582
-0.20469
-0.194628
-0.183923
-0.172064
-0.158625
-0.143388
-0.126421
-0.108109
-0.089144
-0.070625
-0.053234
-0.0375833
-0.024676
-0.0146301
-0.00824055
-0.0614287
-0.0825224
-0.104235
-0.125413
-0.14528
-0.163333
-0.178922
-0.191722
-0.202505
-0.211471
-0.218875
-0.224931
-0.229725
-0.233157
-0.234892
-0.234375
-0.230904
-0.223743
-0.212261
-0.196105
-0.175325
-0.150455
-0.122532
-0.0930308
-0.0637335
-0.0371203
-0.0146397
0.00279309
0.014238
0.0198722
0.0199237
-0.00606184
-0.0115454
-0.0196769
-0.0307195
-0.0446642
-0.0613118
-0.0802044
-0.100639
-0.121807
-0.142897
-0.163076
-0.181523
-0.197428
-0.209998
-0.218463
-0.2221
-0.220279
-0.21254
-0.198692
-0.178919
-0.153859
-0.124626
-0.0927827
-0.0602379
-0.0290813
-0.00216201
0.0190117
0.0336912
0.0412122
0.0420307
0.0370855
0.0552894
0.066524
0.0723271
0.0710507
0.0619981
0.0452905
0.0215036
-0.00791371
-0.0400425
-0.0727062
-0.103767
-0.131312
-0.153771
-0.169982
-0.179221
-0.18118
-0.175917
-0.163828
-0.145615
-0.122282
-0.0951155
-0.0656394
-0.0355614
-0.00668108
0.0192443
0.0397859
0.0539711
0.0616241
0.0625307
0.057455
0.0477591
0.107384
0.13246
0.14935
0.155404
0.149423
0.131646
0.102984
0.0657435
0.0248904
-0.0160717
-0.0538209
-0.0855546
-0.109213
-0.123594
-0.128368
-0.123997
-0.111546
-0.0925188
-0.0686741
-0.0418902
-0.0140349
0.0131367
0.0380451
0.0593421
0.0759694
0.08634
0.0903437
0.0885663
0.0813215
0.0696934
0.055226
0.135287
0.16748
0.189647
0.198807
0.193583
0.174476
0.142799
0.101525
0.0569576
0.0134604
-0.0249556
-0.0550669
-0.0747237
-0.0829806
-0.0800828
-0.0673096
-0.0466794
-0.0206543
0.00815697
0.0372456
0.0644074
0.0878793
0.106393
0.119182
0.125956
0.126025
0.120125
0.109509
0.0949422
0.0777542
0.0594478
0.129879
0.16024
0.180361
0.187706
0.181113
0.1614
0.130182
0.0906523
0.049251
0.0104032
-0.0219672
-0.0448709
-0.0565347
-0.0565062
-0.0455977
-0.0256763
0.000690831
0.0305909
0.0611121
0.0896274
0.114015
0.132783
0.145099
0.150745
0.150032
0.142949
0.130748
0.114986
0.0966528
0.0771181
0.0576241
0.0920429
0.112148
0.12369
0.125245
0.1162
0.097657
0.071285
0.0399088
0.0087665
-0.0185781
-0.0391363
-0.0508275
-0.0526787
-0.0448617
-0.02859
-0.00588917
0.0207441
0.04867
0.0754082
0.0988708
0.117522
0.130446
0.137321
0.13835
0.134133
0.12499
0.112161
0.0969857
0.0803424
0.0633418
0.046764
0.0335457
0.0384222
0.0379864
0.0322773
0.0213935
0.00657721
-0.010766
-0.0287344
-0.0443645
-0.0557108
-0.0613809
-0.0606859
-0.0536984
-0.041195
-0.0245106
-0.00532734
0.0145802
0.0335653
0.0502813
0.0637829
0.0735603
0.0795033
0.0818216
0.0809465
0.077423
0.0715164
0.0639024
0.0551843
0.0457962
0.0362791
0.026829
-0.0261569
-0.0360854
-0.0473427
-0.0585326
-0.0689286
-0.0773818
-0.0830467
-0.0852922
-0.0838731
-0.0787993
-0.0705136
-0.0598268
-0.0478123
-0.0356521
-0.0244647
-0.015148
-0.00825937
-0.00395716
-0.00201319
-0.00188944
-0.00286535
-0.00419315
-0.00523103
-0.00554552
-0.00496968
-0.00364108
-0.00186695
-0.000126073
0.00134754
0.00233592
0.00248378
-0.0662692
-0.0850638
-0.101617
-0.113732
-0.120383
-0.120792
-0.114851
-0.103216
-0.0880021
-0.0709464
-0.0540223
-0.0391861
-0.0281373
-0.0220952
-0.0216307
-0.0265846
-0.0360984
-0.0487306
-0.0626576
-0.0759272
-0.086738
-0.0936954
-0.0959779
-0.093419
-0.0864861
-0.0760134
-0.0634626
-0.0504545
-0.0379167
-0.0267936
-0.0177548
-0.071815
-0.0898869
-0.103657
-0.110998
-0.111067
-0.103711
-0.0895498
-0.0701792
-0.0489866
-0.0286754
-0.0119436
-0.00113341
0.00207232
-0.00311465
-0.016456
-0.0366919
-0.0616999
-0.088754
-0.114869
-0.137181
-0.15332
-0.161722
-0.161784
-0.153902
-0.139349
-0.119878
-0.0979988
-0.0762261
-0.0559871
-0.0386715
-0.0248431
-0.0388067
-0.046096
-0.0492241
-0.0470784
-0.0394881
-0.0270817
-0.010993
0.00687516
0.0233634
0.0359027
0.042165
0.0403919
0.0296643
0.0100801
-0.0171827
-0.0499506
-0.0852933
-0.119858
-0.150274
-0.173576
-0.187587
-0.191204
-0.184509
-0.168725
-0.146004
-0.119126
-0.0913136
-0.0654987
-0.0432483
-0.0259412
-0.0135394
0.0246002
0.0353472
0.0478702
0.061503
0.0754145
0.0881802
0.0985157
0.104961
0.106056
0.100484
0.0873516
0.0663831
0.0380552
0.00365863
-0.0347302
-0.0743925
-0.11222
-0.145043
-0.17
-0.184905
-0.188549
-0.180895
-0.163087
-0.137334
-0.106597
-0.0746255
-0.0448884
-0.0201797
-0.00179574
0.00937334
0.01437
0.101325
0.132409
0.161276
0.185108
0.202
0.209873
0.207699
0.195109
0.173351
0.143157
0.105789
0.0629953
0.0169637
-0.0297765
-0.0744731
-0.114321
-0.146666
-0.169254
-0.180476
-0.1796
-0.166923
-0.14382
-0.112645
-0.0765295
-0.0390129
-0.00452785
0.0236859
0.0434408
0.0540393
0.0554012
0.0497111
0.171515
0.219986
0.261766
0.291992
0.307889
0.306984
0.288827
0.254496
0.208208
0.152989
0.0923928
0.0302117
-0.0297824
-0.0840815
-0.12963
-0.163984
-0.185421
-0.193049
-0.186885
-0.167903
-0.138008
-0.0999284
-0.0570185
-0.0130005
0.0284057
0.0626205
0.0870144
0.100265
0.102412
0.094221
0.078785
0.219062
0.278186
0.326915
0.358887
0.370861
0.360276
0.327402
0.27472
0.208893
0.134861
0.057999
-0.0163907
-0.0834978
-0.139355
-0.181053
-0.206854
-0.21618
-0.209568
-0.188567
-0.155607
-0.113809
-0.0667643
-0.0182686
0.0279349
0.0684744
0.099333
0.118727
0.12619
0.122416
0.108743
0.0885931
0.236049
0.297762
0.347127
0.377096
0.38444
0.366784
0.325041
0.262679
0.187701
0.106096
0.0241258
-0.0523144
-0.118193
-0.169728
-0.204588
-0.221921
-0.222225
-0.207168
-0.179329
-0.141936
-0.0985684
-0.052877
-0.00832988
0.0319985
0.0656343
0.0898546
0.103787
0.107607
0.102391
0.0895582
0.0720838
0.223738
0.281034
0.326182
0.352316
0.356627
0.337117
0.295089
0.234352
0.162927
0.0867791
0.0119565
-0.0560745
-0.11291
-0.155559
-0.182571
-0.193981
-0.191083
-0.17614
-0.152052
-0.121998
-0.0891327
-0.0563137
-0.0259165
0.000270339
0.0211046
0.0357116
0.0440623
0.0466408
0.0445543
0.0387668
0.0310723
0.190118
0.238415
0.276655
0.298847
0.302851
0.287125
0.253033
0.204067
0.147116
0.0871865
0.029188
-0.0226512
-0.0651744
-0.0965493
-0.116304
-0.125193
-0.124905
-0.11773
-0.106202
-0.0927376
-0.0793709
-0.0675694
-0.0581494
-0.0513
-0.0466847
-0.0431797
-0.040161
-0.0371489
-0.0333103
-0.028499
-0.0225327
0.146457
0.184067
0.21475
0.233834
0.239901
0.231841
0.210807
0.179495
0.142983
0.104772
0.0681347
0.0356735
0.00906478
-0.0110743
-0.0251317
-0.0343077
-0.0403057
-0.045004
-0.0501269
-0.0569398
-0.0660624
-0.0773981
-0.0901595
-0.103016
-0.114328
-0.121276
-0.122827
-0.118685
-0.10849
-0.0929962
-0.0736121
0.102207
0.129347
0.152676
0.168988
0.177482
0.177441
0.169628
0.155778
0.139054
0.12141
0.104512
0.08946
0.0766608
0.0657982
0.0559482
0.0457906
0.0338915
0.0189859
0.000236848
-0.0225368
-0.0487661
-0.0771561
-0.105795
-0.132378
-0.154506
-0.168422
-0.172945
-0.168204
-0.15411
-0.132086
-0.104471
0.0639694
0.0819381
0.098468
0.111611
0.121017
0.126202
0.127631
0.126184
0.123455
0.120213
0.116953
0.113757
0.110258
0.105672
0.0989355
0.0888907
0.0745099
0.0551078
0.0305187
0.00124301
-0.0315293
-0.0659872
-0.0998494
-0.130594
-0.155747
-0.171614
-0.177253
-0.1726
-0.158076
-0.135216
-0.106683
0.0351665
0.0457477
0.0562008
0.0655505
0.0736544
0.0801565
0.0852941
0.0894218
0.0931139
0.0964726
0.0994
0.101545
0.102311
0.100911
0.096479
0.0882002
0.0754655
0.058003
0.0359818
0.0100883
-0.0184798
-0.0480863
-0.0767957
-0.102553
-0.12341
-0.136631
-0.141323
-0.13741
-0.125628
-0.107262
-0.0845791
-0.0201916
-0.0334867
-0.0506032
-0.0712265
-0.0939479
-0.116691
-0.137015
-0.152274
-0.160014
-0.158515
-0.147023
-0.125978
-0.0970601
-0.0630807
-0.0276975
0.00500111
0.030998
0.0468602