# vtk DataFile Version 2.0
Func
ASCII
DATASET RECTILINEAR_GRID
DIMENSIONS 31 31 31
X_COORDINATES 31 double
-9.67742
-9.03226
-8.3871
-7.74194
-7.09677
-6.45161
-5.80645
-5.16129
-4.51613
-3.87097
-3.22581
-2.58065
-1.93548
-1.29032
-0.645161
0
0.645161
1.29032
1.93548
2.58065
3.22581
3.87097
4.51613
5.16129
5.80645
6.45161
7.09677
7.74194
8.3871
9.03226
9.67742
Y_COORDINATES 31 double
-9.67742
-9.03226
-8.3871
-7.74194
-7.09677
-6.45161
-5.80645
-5.16129
-4.51613
-3.87097
-3.22581
-2.58065
-1.93548
-1.29032
-0.645161
0
0.645161
1.29032
1.93548
2.58065
3.22581
3.87097
4.51613
5.16129
5.80645
6.45161
7.09677
7.74194
8.3871
9.03226
9.67742
Z_COORDINATES 31 double
-9.67742
-9.03226
-8.3871
-7.74194
-7.09677
-6.45161
-5.80645
-5.16129
-4.51613
-3.87097
-3.22581
-2.58065
-1.93548
-1.29032
-0.645161
0
0.645161
1.29032
1.93548
2.58065
3.22581
3.87097
4.51613
5.16129
5.80645
6.45161
7.09677
7.74194
8.3871
9.03226
9.67742
POINT_DATA 29791
SCALARS data double 1
LOOKUP_TABLE default
-0.00677409
-0.00634371
-0.00424423
0.00023865
0.00712856
0.0164632
0.0276654
0.0399083
0.0521128
0.0631805
0.0719763
0.0774406
0.0786853
0.0750843
0.0663355
0.0525001
0.0340138
0.0116706
-0.0134229
-0.0399071
-0.0662568
-0.0908817
-0.112258
-0.129035
-0.14017
-0.144293
-0.141156
-0.130958
-0.115292
-0.0952963
-0.0735131
-0.0145481
-0.015156
-0.012936
-0.00679999
0.00341576
0.0178418
0.0356308
0.0555436
0.0758459
0.0948074
0.110624
0.121591
0.126258
0.123571
0.112971
0.0944608
0.0686205
0.0365884
-7.92866e-06
-0.0391417
-0.0785219
-0.115747
-0.148499
-0.174719
-0.192791
-0.200573
-0.197774
-0.184654
-0.163347
-0.135644
-0.104862
-0.0254066
-0.0281498
-0.0269887
-0.0203215
-0.00780251
0.0108507
0.0346668
0.0620633
0.0907074
0.118307
0.142439
0.16078
0.171311
0.172509
0.163485
0.144073
0.114862
0.0771768
0.03299
-0.0151845
-0.064464
-0.111797
-0.15421
-0.189032
-0.21413
-0.226776
-0.22637
-0.213383
-0.19015
-0.158807
-0.12332
-0.0393406
-0.0455541
-0.0470239
-0.0415601
-0.0285733
-0.00752423
0.0206049
0.0540595
0.0900401
0.125849
0.158581
0.185406
0.203798
0.211781
0.208089
0.192284
0.164804
0.126945
0.0807813
0.0290407
-0.0250846
-0.0781641
-0.126809
-0.167928
-0.199004
-0.216961
-0.220944
-0.211196
-0.190161
-0.159972
-0.124914
-0.0556743
-0.0664601
-0.0720177
-0.0695079
-0.0580535
-0.0368068
-0.0066267
0.030712
0.0720851
0.114562
0.154924
0.189976
0.216803
0.233037
0.237047
0.228074
0.206294
0.172817
0.129606
0.0793591
0.0253124
-0.0289927
-0.0800051
-0.12443
-0.159529
-0.182092
-0.191007
-0.186323
-0.170246
-0.144726
-0.11399
-0.0726508
-0.0885659
-0.0990059
-0.100556
-0.0920525
-0.0723438
-0.0421169
-0.00307929
0.0414174
0.0883307
0.134264
0.175792
0.20974
0.233456
0.245027
0.243419
0.228552
0.201305
0.163451
0.117534
0.0666783
0.0143594
-0.0358931
-0.0807619
-0.117444
-0.142755
-0.155429
-0.155333
-0.144347
-0.124161
-0.0987614
-0.086974
-0.107488
-0.122421
-0.128007
-0.122863
-0.105618
-0.0768191
-0.0380918
0.00706337
0.0555751
0.103986
0.14879
0.186712
0.214992
0.231597
0.235366
0.226078
0.204462
0.172127
0.131441
0.0853492
0.0371412
-0.0098251
-0.0523808
-0.0878286
-0.113166
-0.127139
-0.129547
-0.121955
-0.105843
-0.0847235
-0.0944258
-0.117508
-0.135017
-0.143131
-0.140395
-0.125388
-0.0986259
-0.0616994
-0.0181824
0.0288809
0.0760842
0.119999
0.15745
0.185796
0.20312
0.208364
0.201376
0.182899
0.154493
0.118401
0.0773715
0.03443
-0.00737221
-0.0451902
-0.0766272
-0.0990305
-0.111377
-0.11356
-0.106918
-0.0928187
-0.0741883
-0.0910669
-0.113352
-0.130202
-0.138104
-0.135735
-0.121854
-0.0970883
-0.0630686
-0.0233224
0.0192044
0.0612958
0.0997965
0.131877
0.155283
0.168498
0.170839
0.162461
0.144311
0.118019
0.085752
0.050022
0.0134806
-0.0213012
-0.0520207
-0.0768176
-0.09363
-0.101891
-0.101753
-0.0943933
-0.0811233
-0.064154
-0.0749495
-0.0924269
-0.104805
-0.109232
-0.104753
-0.0905471
-0.067485
-0.0372921
-0.00327596
0.0318248
0.0651604
0.0940783
0.11636
0.130426
0.135442
0.131353
0.118831
0.0991737
0.0741506
0.0458338
0.0164047
-0.0120331
-0.0376167
-0.0588467
-0.0746658
-0.083916
-0.0866738
-0.0834772
-0.0753324
-0.0634529
-0.0491626
-0.047339
-0.0564532
-0.0610844
-0.0593161
-0.0507606
-0.0352145
-0.013861
0.0114786
0.0379318
0.0631192
0.0847601
0.100943
0.110315
0.112219
0.106728
0.094597
0.0771374
0.056047
0.0332113
0.0105051
-0.0103966
-0.0281681
-0.0419206
-0.051234
-0.0561135
-0.056647
-0.0536761
-0.0481674
-0.0408589
-0.0327173
-0.0239617
-0.0129703
-0.0117739
-0.00703257
0.00209755
0.015328
0.0321588
0.0511104
0.0703364
0.0876112
0.101087
0.109246
0.111117
0.1064
0.0955198
0.0795688
0.0601711
0.0392755
0.0189173
0.000974386
-0.0130536
-0.0222165
-0.0262102
-0.0253678
-0.0205799
-0.01311
-0.00457657
0.00338356
0.0094147
0.0132136
0.0142721
0.0137049
0.0209501
0.0320304
0.0454385
0.0609872
0.077734
0.0945319
0.109711
0.121529
0.128556
0.129622
0.124101
0.112064
0.0943287
0.0724161
0.0484037
0.0246982
0.00375568
-0.0122165
-0.0215374
-0.0232832
-0.0174262
-0.00486523
0.0126939
0.0329377
0.0532778
0.0704341
0.0820464
0.0864844
0.0840542
0.0749098
0.0616671
0.046728
0.0648254
0.0839038
0.102966
0.120577
0.135139
0.144961
0.148554
0.145312
0.134807
0.117319
0.0939188
0.0664369
0.0373384
0.00948979
-0.0141424
-0.0308283
-0.0384134
-0.0356111
-0.0222285
0.000737913
0.0311457
0.0659338
0.101436
0.13385
0.15833
0.171962
0.173005
0.162494
0.141366
0.113769
0.0584388
0.0789413
0.0991814
0.117719
0.132891
0.142948
0.146364
0.142015
0.130004
0.110585
0.0848064
0.0545233
0.0223105
-0.00873717
-0.0352943
-0.0541554
-0.0626017
-0.0587563
-0.0418695
-0.0125268
0.0273046
0.0743861
0.124526
0.172983
0.215037
0.244617
0.258508
0.255033
0.235972
0.203038
0.161753
0.0536266
0.071396
0.0880222
0.102066
0.111949
0.116096
0.113288
0.102814
0.0852149
0.0612377
0.0324109
0.0010197
-0.0300253
-0.0574214
-0.0777883
-0.0880336
-0.0857212
-0.0694152
-0.0389416
0.00443196
0.0579922
0.117741
0.17877
0.235715
0.283383
0.315019
0.327388
0.319038
0.292385
0.249774
0.197747
0.0338357
0.0445249
0.0537624
0.0605486
0.0636691
0.0620033
0.0547051
0.0414048
0.0227271
-0.000394218
-0.0263364
-0.0528275
-0.0770843
-0.0960429
-0.106662
-0.106268
-0.0928981
-0.0656148
-0.0247308
0.0280384
0.0895994
0.155663
0.221137
0.280578
0.328826
0.359065
0.368315
0.355446
0.3233
0.274596
0.216392
0.00384701
0.00487563
0.00481124
0.00344523
0.000112454
-0.00568332
-0.0144556
-0.026395
-0.0411877
-0.0580676
-0.0757317
-0.0923572
-0.105713
-0.113348
-0.112854
-0.102163
-0.0798486
-0.0453977
0.000595403
0.0562989
0.118674
0.183648
0.246475
0.302157
0.34602
0.371759
0.376841
0.360479
0.325656
0.275162
0.216002
-0.0299993
-0.0390903
-0.0482982
-0.0568351
-0.0647626
-0.0719247
-0.0786358
-0.0851395
-0.0917828
-0.0983056
-0.10408
-0.10807
-0.108889
-0.104921
-0.094514
-0.0762268
-0.0490807
-0.0127939
0.0320435
0.0838443
0.140036
0.197193
0.251337
0.298286
0.334154
0.353531
0.3544
0.336239
0.301872
0.253857
0.198641
-0.0617035
-0.0795395
-0.096077
-0.109497
-0.11933
-0.124877
-0.126449
-0.124591
-0.120561
-0.11486
-0.107761
-0.0991916
-0.0887117
-0.0755552
-0.0587608
-0.0373578
-0.0105904
0.0218696
0.0597452
0.102011
0.146862
0.191786
0.233781
0.269628
0.296295
0.309388
0.307313
0.289654
0.258811
0.216873
0.169379
-0.0870438
-0.111136
-0.132325
-0.147882
-0.156977
-0.158571
-0.153181
-0.141868
-0.126923
-0.109735
-0.0915423
-0.073222
-0.0551849
-0.0373395
-0.0191683
0.000118682
0.021368
0.045261
0.0721051
0.101649
0.13299
0.164578
0.194352
0.219941
0.238999
0.247979
0.245478
0.230969
0.206246
0.172793
0.135117
-0.104132
-0.131699
-0.154824
-0.170098
-0.17654
-0.173015
-0.160428
-0.14049
-0.116512
-0.0907647
-0.0653608
-0.0419494
-0.0215383
-0.00439567
0.00990236
0.0223216
0.0341292
0.0466287
0.0608939
0.0775199
0.096462
0.11697
0.137669
0.156708
0.172068
0.180648
0.180924
0.172029
0.155085
0.130957
0.103234
-0.113117
-0.141727
-0.164611
-0.177966
-0.180858
-0.17228
-0.153636
-0.12732
-0.0975458
-0.0673361
-0.0394733
-0.0161006
0.00151077
0.0130956
0.0193476
0.0217393
0.0222247
0.022904
0.025676
0.0319136
0.0422322
0.0563722
0.0732458
0.0910832
0.107746
0.120061
0.126066
0.12438
0.115504
0.0997911
0.080214
-0.11532
-0.143187
-0.164412
-0.175072
-0.174426
-0.16176
-0.138992
-0.109139
-0.0771059
-0.0464675
-0.0204097
-0.00126572
0.00975256
0.0126977
0.00881319
0.00029734
-0.0100718
-0.0193609
-0.0249182
-0.0247782
-0.017952
-0.00457792
0.014126
0.0360377
0.0584971
0.0777665
0.0912195
0.0968871
0.0948029
0.0850066
0.0702478
-0.112324
-0.138304
-0.157124
-0.164978
-0.161386
-0.146006
-0.121198
-0.0904467
-0.0590875
-0.0310021
-0.00951344
0.00311907
0.0059816
-0.000364718
-0.0140007
-0.0319523
-0.0506496
-0.0664397
-0.0761072
-0.0773473
-0.0690995
-0.0517073
-0.0268447
0.00271517
0.0335447
0.0610149
0.0817725
0.0933026
0.0953979
0.0880196
0.0740628
-0.105467
-0.128883
-0.145008
-0.150318
-0.144597
-0.127862
-0.102772
-0.0730669
-0.0442201
-0.0201746
-0.00416144
0.00181531
-0.0027449
-0.0167381
-0.0376194
-0.0617683
-0.0850175
-0.103236
-0.112911
-0.111665
-0.0986137
-0.0745128
-0.0416447
-0.00352391
0.0356301
0.0702287
0.0963048
0.110958
0.113974
0.105448
0.0886735
-0.095183
-0.11556
-0.128901
-0.132092
-0.125127
-0.108306
-0.0843739
-0.0570622
-0.0316607
-0.0119273
-0.00081575
2.17986e-05
-0.00951297
-0.0278962
-0.0521814
-0.0784017
-0.102136
-0.119121
-0.125856
-0.120133
-0.101386
-0.0708186
-0.0312454
0.013247
0.0578859
0.0963864
0.12446
0.139077
0.140189
0.128157
0.106641
-0.0820277
-0.0990328
-0.109665
-0.111269
-0.103975
-0.0882329
-0.0666486
-0.0426705
-0.0210859
-0.00524731
0.00230494
0.000291816
-0.0110867
-0.0301147
-0.0537731
-0.0781439
-0.0989629
-0.112215
-0.114709
-0.104582
-0.0816155
-0.047334
-0.00482317
0.0416304
0.0871339
0.12523
0.151707
0.163677
0.161352
0.145365
0.119635
-0.0659683
-0.0792911
-0.0872952
-0.0878759
-0.0812005
-0.0677766
-0.0497811
-0.0301172
-0.0127569
-0.000443098
0.00480612
0.00206715
-0.00831542
-0.0247141
-0.0444168
-0.0639871
-0.0797501
-0.0883106
-0.0870478
-0.0745481
-0.0508648
-0.0175868
0.0223406
0.0649533
0.105806
0.138983
0.160773
0.168824
0.163475
0.145544
0.118829
-0.0479518
-0.0575173
-0.0631563
-0.0633026
-0.0581177
-0.0479458
-0.0345165
-0.0199548
-0.00718685
0.00178434
0.00551332
0.00338803
-0.0042486
-0.0160941
-0.0300469
-0.0434858
-0.0536426
-0.0579977
-0.0546546
-0.0426658
-0.0222218
0.00530219
0.0375008
0.0712048
0.102914
0.127942
0.14353
0.147694
0.141028
0.124293
0.100793
-0.0300804
-0.0360474
-0.0396351
-0.0397576
-0.0365508
-0.0301619
-0.0217039
-0.0125469
-0.00448596
0.00124225
0.00375435
0.00269568
-0.00168752
-0.00854747
-0.0165405
-0.0240085
-0.0292164
-0.0306041
-0.0270238
-0.0179435
-0.00356634
0.0151442
0.0365729
0.0586243
0.0790167
0.0947342
0.103908
0.10527
0.0994327
0.0868483
0.0701507
-0.0136863
-0.0142558
-0.0121778
-0.00647261
0.00297429
0.0162498
0.0324706
0.0503994
0.0683465
0.0846396
0.0975604
0.105516
0.107185
0.101654
0.0885074
0.0678791
0.0404643
0.00748606
-0.0293793
-0.0680957
-0.106404
-0.141974
-0.172591
-0.196321
-0.211685
-0.216642
-0.211045
-0.195283
-0.171556
-0.141707
-0.10902
-0.0255935
-0.0279158
-0.0258663
-0.0179928
-0.00395507
0.0164434
0.0419207
0.0706718
0.100033
0.127421
0.150162
0.16575
0.172075
0.167638
0.151684
0.124295
0.0864019
0.0397405
-0.0132583
-0.0696068
-0.125969
-0.178889
-0.225067
-0.261604
-0.286254
-0.295861
-0.290396
-0.270415
-0.238714
-0.198018
-0.152696
-0.0405572
-0.0457759
-0.0450482
-0.036279
-0.0188609
0.00756578
0.0415451
0.0808028
0.121813
0.161199
0.195426
0.221133
0.235435
0.236202
0.222248
0.193451
0.150784
0.0962601
0.0328077
-0.0359072
-0.105737
-0.172348
-0.231562
-0.279669
-0.313752
-0.329867
-0.327622
-0.307929
-0.273778
-0.228383
-0.176933
-0.058484
-0.0680635
-0.0704969
-0.0629614
-0.0445156
-0.014499
0.0256012
0.0733049
0.124438
0.175074
0.221031
0.258269
0.283237
0.293207
0.286503
0.262656
0.222443
0.167853
0.101949
0.0286751
-0.0474216
-0.121523
-0.188925
-0.245387
-0.287505
-0.310928
-0.314938
-0.300083
-0.269516
-0.22647
-0.176453
-0.0790148
-0.0942837
-0.10175
-0.0977854
-0.0810652
-0.0505801
-0.00764029
0.0453001
0.103642
0.163173
0.219324
0.267597
0.303952
0.325162
0.329082
0.314819
0.282799
0.234742
0.173534
0.103036
0.0278022
-0.0472585
-0.117283
-0.177817
-0.225206
-0.255009
-0.26615
-0.258864
-0.235979
-0.200439
-0.157506
-0.100607
-0.122398
-0.136096
-0.13734
-0.124431
-0.0960196
-0.053161
0.00184624
0.0641167
0.129328
0.192714
0.249516
0.295383
0.326746
0.341099
0.33719
0.315095
0.276204
0.223105
0.159404
0.0894414
0.0179667
-0.0502551
-0.110806
-0.159996
-0.193524
-0.210085
-0.209622
-0.194517
-0.167311
-0.132774
-0.119395
-0.147255
-0.166944
-0.173634
-0.165345
-0.140495
-0.0999173
-0.0457413
0.016961
0.0838677
0.150173
0.211056
0.262077
0.299555
0.320852
0.324561
0.310567
0.280042
0.235319
0.179718
0.117274
0.0524181
-0.010392
-0.0670084
-0.113944
-0.147242
-0.165609
-0.168878
-0.158986
-0.138125
-0.110361
-0.129878
-0.161359
-0.18474
-0.195086
-0.190335
-0.168874
-0.131472
-0.0801829
-0.0201798
0.0442731
0.108467
0.167719
0.217763
0.255112
0.277323
0.283152
0.272594
0.246843
0.208152
0.159643
0.105037
0.0483488
-0.00644323
-0.0556986
-0.0964009
-0.125157
-0.141
-0.143913
-0.135503
-0.117739
-0.0939258
-0.126401
-0.157131
-0.179985
-0.190385
-0.186464
-0.16686
-0.132492
-0.0854832
-0.0309654
0.0269279
0.083751
0.135208
0.177525
0.207779
0.224108
0.225818
0.213358
0.188224
0.152778
0.110031
0.0633645
0.0162419
-0.0280652
-0.0667146
-0.0974853
-0.117871
-0.127552
-0.126915
-0.11734
-0.100651
-0.0793014
-0.105717
-0.130252
-0.147375
-0.153332
-0.146776
-0.126887
-0.0949423
-0.0532676
-0.00672102
0.0408188
0.0853882
0.123375
0.151854
0.168851
0.173481
0.16596
0.147496
0.12011
0.0863951
0.0492523
0.0116084
-0.0238412
-0.0548329
-0.0796748
-0.0973068
-0.106547
-0.107972
-0.102556
-0.0914774
-0.0763607
-0.0586285
-0.0689254
-0.0822562
-0.0889926
-0.0865936
-0.0745139
-0.0527059
-0.0229374
0.0122169
0.0484696
0.08239
0.110761
0.13097
0.141283
0.14102
0.130582
0.111357
0.0854929
0.0556267
0.0245636
-0.00502762
-0.0308962
-0.051418
-0.0656911
-0.0735467
-0.0754403
-0.0719999
-0.0648386
-0.0555731
-0.0450956
-0.0346385
-0.0243137
-0.0221012
-0.0213064
-0.0151657
-0.0025593
0.0160983
0.0399788
0.0668266
0.0938868
0.117748
0.13566
0.145414
0.14567
0.13614
0.117655
0.0920655
0.0620106
0.0305861
0.000962081
-0.0240032
-0.0421083
-0.0520684
-0.0536536
-0.0476538
-0.0357319
-0.0201207
-0.00366337
0.0109877
0.0216487
0.0278843
0.0291356
0.0269223
0.0249245
0.0395054
0.0577962
0.0795254
0.103344
0.127621
0.149756
0.166994
0.17702
0.17797
0.16883
0.149676
0.121753
0.0874223
0.0499286
0.0130409
-0.0193854
-0.0438793
-0.0577922
-0.0596652
-0.0494459
-0.0285376
0.000384011
0.0336859
0.0672829
0.0959391
0.116102
0.125204
0.123462
0.111258
0.0919896
0.0613062
0.0858789
0.11233
0.13928
0.164668
0.186309
0.201507
0.207743
0.203856
0.188969
0.163292
0.128257
0.0865047
0.0417055
-0.00178782
-0.0394018
-0.0668626
-0.0807254
-0.0788361
-0.0606979
-0.0276283
0.017292
0.0695444
0.123647
0.173842
0.212661
0.235919
0.240909
0.228648
0.200614
0.162136
0.0784439
0.106663
0.135051
0.161613
0.183952
0.199707
0.206372
0.201884
0.186073
0.158989
0.121881
0.0772543
0.0287593
-0.0190745
-0.0612646
-0.0929055
-0.109728
-0.10865
-0.0882302
-0.0490084
0.00640298
0.0734623
0.146142
0.217526
0.280628
0.326276
0.350007
0.349238
0.325821
0.282303
0.225732
0.0725292
0.0971915
0.120796
0.141342
0.156545
0.164278
0.162471
0.149638
0.126232
0.0929812
0.0517912
0.00574048
-0.0410818
-0.0838914
-0.117666
-0.137688
-0.140104
-0.122453
-0.084082
-0.0264484
0.0468518
0.130294
0.216939
0.299095
0.3692
0.417193
0.438728
0.431565
0.39829
0.342309
0.27189
0.0454446
0.0603652
0.0737875
0.0843023
0.0901514
0.0897954
0.0817275
0.0650109
0.0402142
0.00833901
-0.0285828
-0.0675128
-0.104578
-0.135378
-0.155426
-0.160647
-0.147902
-0.115458
-0.0633529
0.00635073
0.0895772
0.180477
0.271952
0.356319
0.426172
0.471494
0.48841
0.47516
0.434838
0.371345
0.293474
0.00378016
0.00521803
0.00564477
0.00471953
0.00148554
-0.00479096
-0.0150821
-0.0299586
-0.0492859
-0.0722738
-0.0973325
-0.122069
-0.143421
-0.157909
-0.162004
-0.152559
-0.127256
-0.085013
-0.026291
0.0466873
0.129963
0.218064
0.304481
0.38227
0.444832
0.483033
0.493709
0.475593
0.43197
0.366807
0.28865
-0.0435151
-0.0563025
-0.0687463
-0.0798547
-0.0896916
-0.0981535
-0.105854
-0.113299
-0.121277
-0.129674
-0.13783
-0.144463
-0.147727
-0.145368
-0.134995
-0.11442
-0.0820324
-0.0371428
0.0197503
0.0867551
0.160589
0.236743
0.309872
0.37428
0.424583
0.453089
0.457388
0.436593
0.393826
0.332705
0.260854
-0.0878562
-0.112977
-0.135775
-0.153904
-0.166634
-0.173171
-0.174049
-0.17006
-0.163267
-0.15458
-0.144578
-0.133326
-0.120323
-0.10455
-0.0846407
-0.0591405
-0.0268226
0.0130039
0.0602304
0.113729
0.171297
0.229735
0.285125
0.333192
0.369836
0.388948
0.388704
0.368355
0.330539
0.2782
0.217606
-0.123119
-0.157038
-0.186382
-0.207643
-0.219536
-0.220858
-0.21238
-0.195502
-0.173724
-0.149164
-0.123723
-0.0987767
-0.0750155
-0.0523808
-0.030161
-0.00719512
0.0178232
0.0460322
0.078101
0.113957
0.152649
0.192326
0.230402
0.263827
0.289496
0.302593
0.301516
0.28534
0.25598
0.215527
0.168779
-0.146489
-0.185193
-0.217146
-0.238019
-0.246288
-0.24067
-0.222457
-0.19388
-0.159864
-0.123726
-0.0885578
-0.0567859
-0.0299108
-0.00836105
0.00845127
0.0219313
0.0339635
0.0465393
0.0613767
0.0795622
0.101317
0.125882
0.151606
0.176148
0.196848
0.209545
0.212389
0.203951
0.185318
0.157718
0.124698
-0.158092
-0.198007
-0.229341
-0.247347
-0.250555
-0.237921
-0.21144
-0.174268
-0.132585
-0.0907464
-0.0527433
-0.021654
0.0006994
0.0139415
0.0190838
0.018281
0.0144087
0.0105885
0.00969219
0.0138756
0.0242468
0.0406815
0.0618697
0.0855144
0.108726
0.12719
0.138353
0.140034
0.132524
0.116349
0.0942834
-0.159801
-0.198249
-0.226788
-0.240623
-0.238568
-0.220045
-0.187807
-0.145879
-0.10142
-0.0595464
-0.0247878
-0.000443792
0.0118074
0.0121068
0.00231146
-0.0143339
-0.0337371
-0.0515655
-0.063873
-0.0676825
-0.0614022
-0.0450528
-0.0202135
0.0102251
0.0425427
0.0715113
0.0935608
0.105659
0.107471
0.0990952
0.0831386
-0.153975
-0.189213
-0.213765
-0.223084
-0.216386
-0.193665
-0.158349
-0.115151
-0.071843
-0.0339796
-0.00626537
0.0081436
0.0080485
-0.00561816
-0.0299632
-0.0605649
-0.0921399
-0.119285
-0.137229
-0.142518
-0.133496
-0.110537
-0.0759559
-0.0336678
0.0114158
0.0526486
0.085377
0.105793
0.113198
0.107596
0.091978
-0.142697
-0.173719
-0.193815
-0.198877
-0.188542
-0.163351
-0.127205
-0.0852274
-0.0454032
-0.0133882
0.00624617
0.0107297
-0.000505885
-0.0256969
-0.0609901
-0.100971
-0.139437
-0.170252
-0.188186
-0.189677
-0.173341
-0.140191
-0.093478
-0.0382622
0.0193273
0.071119
0.111563
0.136325
0.144632
0.136685
0.116237
-0.126935
-0.153141
-0.168755
-0.17022
-0.157519
-0.13161
-0.0965612
-0.0575423
-0.0222923
0.00377281
0.0164652
0.0135213
-0.00503253
-0.0367974
-0.0772998
-0.120578
-0.160017
-0.189247
-0.203025
-0.198021
-0.173317
-0.130596
-0.0739183
-0.00922222
0.0565098
0.113978
0.157179
0.18163
0.186724
0.173037
0.14507
-0.107876
-0.129056
-0.140546
-0.139385
-0.125781
-0.100893
-0.0686236
-0.0338091
-0.00348765
0.0174716
0.0254467
0.0186944
-0.00233242
-0.0349468
-0.0745468
-0.115209
-0.150508
-0.174398
-0.182057
-0.170639
-0.139729
-0.0914861
-0.0303933
0.0372814
0.10434
0.161136
0.20178
0.22203
0.221607
0.201469
0.166662
-0.0856489
-0.101734
-0.109615
-0.107006
-0.0941984
-0.0723875
-0.0448718
-0.01577
0.00903683
0.0255253
0.0307931
0.0235822
0.00453346
-0.0238045
-0.057274
-0.0906417
-0.118324
-0.135157
-0.137135
-0.122055
-0.0898983
-0.0429298
0.0145544
0.0767285
0.137017
0.186507
0.220017
0.234125
0.228721
0.205006
0.167952
-0.0618538
-0.0731412
-0.0782343
-0.0754785
-0.0651516
-0.0481198
-0.0270405
-0.00497602
0.013689
0.0259718
0.0297639
0.024224
0.00995983
-0.0109749
-0.0353239
-0.0590462
-0.0778796
-0.087935
-0.0862622
-0.0713419
-0.0433671
-0.00431166
0.0422894
0.0917394
0.138812
0.176369
0.200554
0.208448
0.200428
0.177625
0.14438
-0.0389358
-0.0459038
-0.048951
-0.0469915
-0.040213
-0.0290599
-0.0152951
-0.000964521
0.0111943
0.0192929
0.022011
0.0188487
0.0102392
-0.00245628
-0.0171117
-0.0311134
-0.0417263
-0.0464803
-0.0435359
-0.0319997
-0.0121051
0.0147473
0.046147
0.0789398
0.109658
0.13365
0.148202
0.151386
0.143831
0.126314
0.102206
-0.0231901
-0.0259173
-0.0253044
-0.0200223
-0.00989544
0.00522
0.0242547
0.0456155
0.0671
0.0865906
0.10193
0.111142
0.112614
0.105269
0.0886699
0.0630724
0.0294246
-0.0106883
-0.0551487
-0.101433
-0.146788
-0.188417
-0.223709
-0.250425
-0.266895
-0.270762
-0.26191
-0.24117
-0.211058
-0.173871
-0.133404
-0.0388293
-0.0440691
-0.043843
-0.036278
-0.0209161
0.00248833
0.032395
0.066502
0.101394
0.133844
0.160546
0.178442
0.185007
0.178506
0.158156
0.124209
0.0779539
0.0216367
-0.0416962
-0.108381
-0.174402
-0.235672
-0.288356
-0.329155
-0.355579
-0.364042
-0.354611
-0.328496
-0.28881
-0.238875
-0.18373
-0.0554944
-0.0637932
-0.0647529
-0.0557961
-0.0361745
-0.00552147
0.0344607
0.0808563
0.129239
0.175454
0.215199
0.244445
0.259807
0.258869
0.240403
0.20449
0.15252
0.0871035
0.0118848
-0.0686873
-0.149682
-0.226049
-0.293008
-0.346406
-0.383059
-0.39859
-0.392655
-0.366999
-0.324884
-0.270215
-0.208847
-0.0729642
-0.085269
-0.0888998
-0.0805184
-0.0590473
-0.0238407
0.0233846
0.0794414
0.139222
0.197977
0.250718
0.2927
0.319842
0.329111
0.318781
0.288579
0.239704
0.174741
0.0974696
0.0126104
-0.0745214
-0.158413
-0.233783
-0.295975
-0.341345
-0.365199
-0.366837
-0.347579
-0.310824
-0.260398
-0.202417
-0.0920365
-0.109477
-0.117634
-0.112342
-0.0921467
-0.0560938
-0.00563727
0.056057
0.123513
0.191739
0.255397
0.309323
0.348971
0.37082
0.372666
0.353787
0.314981
0.258498
0.187855
0.107587
0.0229102
-0.0606833
-0.137857
-0.203829
-0.254764
-0.286027
-0.29652
-0.28715
-0.260873
-0.221071
-0.173375
-0.112837
-0.136564
-0.150868
-0.150821
-0.134595
-0.100926
-0.0509022
0.0125005
0.0836057
0.157393
0.228409
0.291299
0.341258
0.374455
0.388326
0.38176
0.355144
0.310307
0.250356
0.179433
0.102395
0.0244263
-0.0493719
-0.114371
-0.166785
-0.202284
-0.219519
-0.21899
-0.203085
-0.174614
-0.138442
-0.132375
-0.162517
-0.183316
-0.189361
-0.178524
-0.149331
-0.102546
-0.0409242
0.0297364
0.104498
0.177954
0.244763
0.300099
0.340067
0.361991
0.364599
0.348049
0.31388
0.264845
0.204679
0.137788
0.0688877
0.00262405
-0.0567782
-0.105842
-0.14074
-0.160165
-0.164423
-0.155362
-0.135311
-0.1082
-0.145017
-0.179571
-0.204959
-0.215643
-0.209393
-0.184717
-0.142263
-0.084679
-0.0178566
0.0533709
0.123749
0.188138
0.241953
0.281558
0.304529
0.309799
0.297655
0.269651
0.22842
0.177429
0.120669
0.0623168
0.00639913
-0.0435058
-0.0845211
-0.113531
-0.12965
-0.133323
-0.126019
-0.109779
-0.0876189
-0.143819
-0.1784
-0.204059
-0.215612
-0.211026
-0.189075
-0.150587
-0.0982889
-0.038078
0.0253411
0.0869991
0.142191
0.1869
0.218144
0.234191
0.234628
0.220294
0.193116
0.155872
0.111911
0.0648314
0.0181612
-0.0249118
-0.0617628
-0.0904727
-0.108979
-0.117208
-0.116053
-0.106773
-0.0912503
-0.071566
-0.123889
-0.152498
-0.172594
-0.179854
-0.172813
-0.150812
-0.11517
-0.0688612
-0.0175921
0.0341524
0.0818873
0.12164
0.150334
0.166076
0.16827
0.157593
0.135813
0.105528
0.0698462
0.03205
-0.00474008
-0.0378526
-0.0652529
-0.0856517
-0.0984979
-0.10327
-0.101013
-0.0932907
-0.0812166
-0.066491
-0.0501112
-0.0851252
-0.10184
-0.11078
-0.108927
-0.095717
-0.071311
-0.0377331
0.00171451
0.0418309
0.0785349
0.108098
0.127615
0.135332
0.130826
0.115008
0.0899584
0.0586084
0.0243611
-0.0093281
-0.0393489
-0.0632793
-0.0796234
-0.0878839
-0.0885201
-0.0827495
-0.0721449
-0.059058
-0.0457512
-0.0331536
-0.0225696
-0.0136243
-0.0334979
-0.0345114
-0.0289546
-0.0153733
0.00568463
0.0331243
0.0641742
0.0952728
0.122079
0.141171
0.149871
0.146653
0.131372
0.105335
0.071146
0.0323933
-0.00680923
-0.0423315
-0.0705387
-0.0887445
-0.0955414
-0.090963
-0.0764129
-0.0544414
-0.0283249
-0.0021915
0.0202865
0.036276
0.0451881
0.0464361
0.0421256
0.020023
0.0348349
0.0545395
0.0790284
0.106652
0.135452
0.16207
0.182892
0.194725
0.19506
0.182498
0.157064
0.120337
0.0753726
0.0264059
-0.0216163
-0.0636193
-0.0950217
-0.112316
-0.113557
-0.0986548
-0.0694352
-0.0294113
0.016636
0.0633056
0.103733
0.133089
0.148227
0.149096
0.136135
0.113463
0.0626343
0.0892813
0.118849
0.149962
0.180118
0.206761
0.226275
0.235281
0.231847
0.214529
0.183264
0.139586
0.0866367
0.0289618
-0.027918
-0.0780991
-0.11597
-0.136904
-0.137874
-0.117946
-0.0785072
-0.0232179
0.0423715
0.111421
0.176648
0.228688
0.261885
0.273098
0.262976
0.233161
0.189837
0.0837268
0.115037
0.147348
0.178564
0.205777
0.226246
0.236504
0.233687
0.216991
0.186005
0.141825
0.0871785
0.026326
-0.0352332
-0.0912825
-0.13555
-0.162427
-0.167678
-0.149049
-0.106725
-0.0434931
0.0354148
0.122827
0.210366
0.289435
0.34885
0.38259
0.387828
0.365981
0.319851
0.257425
0.0782006
0.105785
0.132924
0.157496
0.176728
0.188156
0.188841
0.176598
0.15138
0.11356
0.0649774
0.00898534
-0.0497039
-0.105368
-0.15182
-0.183081
-0.194079
-0.181328
-0.14348
-0.081734
7.52992e-05
0.0957087
0.197097
0.295137
0.380732
0.4419
0.472775
0.47109
0.438957
0.380082
0.303662
0.0478042
0.0643259
0.0797986
0.0927679
0.101101
0.103009
0.0963213
0.0795289
0.0527904
0.0168308
-0.0263608
-0.0735098
-0.120223
-0.161326
-0.191373
-0.20526
-0.198857
-0.16961
-0.117009
-0.0429408
0.0482858
0.150192
0.254711
0.352959
0.436235
0.492912
0.517759
0.509197
0.469832
0.403856
0.320848
0.000114579
0.00106465
0.00139446
0.000868971
-0.0016623
-0.00706892
-0.0167164
-0.0316285
-0.0520519
-0.0774465
-0.106313
-0.136152
-0.163586
-0.184628
-0.195098
-0.191134
-0.169719
-0.129182
-0.0695863
0.00698686
0.0964222
0.192809
0.288955
0.377063
0.449607
0.496319
0.512939
0.498553
0.455962
0.389351
0.307798
-0.0542516
-0.0698141
-0.0845823
-0.0972724
-0.10794
-0.116506
-0.123699
-0.1304
-0.137811
-0.146099
-0.154803
-0.162727
-0.167971
-0.168088
-0.160377
-0.142263
-0.111727
-0.0677023
-0.0103994
0.0584443
0.135532
0.216179
0.294705
0.364978
0.42111
0.454816
0.462897
0.444915
0.403528
0.342447
0.2695
-0.104971
-0.1348
-0.161699
-0.182859
-0.197364
-0.204369
-0.204298
-0.198296
-0.188922
-0.177445
-0.164788
-0.151305
-0.136698
-0.120041
-0.0999505
-0.0748524
-0.0433284
-0.00445297
0.0419084
0.0948467
0.15232
0.211225
0.267655
0.31728
0.355878
0.377243
0.37903
0.360951
0.325194
0.274645
0.215431
-0.144624
-0.18445
-0.218882
-0.243836
-0.257734
-0.259302
-0.249069
-0.228831
-0.202705
-0.173272
-0.142917
-0.113477
-0.0860293
-0.0607975
-0.0372218
-0.0141615
0.00979039
0.0359743
0.0653364
0.0981272
0.133726
0.170596
0.206423
0.238361
0.263434
0.277058
0.277277
0.263543
0.237313
0.200477
0.157399
-0.169795
-0.214716
-0.251846
-0.276248
-0.286082
-0.280052
-0.259181
-0.226207
-0.186805
-0.144869
-0.104084
-0.0674351
-0.0368825
-0.0131789
0.00410542
0.0163858
0.025711
0.0343668
0.0444608
0.0575276
0.0742472
0.094298
0.116401
0.138506
0.158131
0.171435
0.176229
0.171292
0.157223
0.134925
0.107345
-0.180662
-0.226264
-0.26204
-0.282686
-0.286479
-0.27249
-0.242525
-0.200405
-0.153196
-0.105935
-0.0632743
-0.0288589
-0.0049188
0.00795702
0.0107841
0.00592489
-0.00336812
-0.0134743
-0.0209573
-0.0230863
-0.0182287
-0.00607498
0.0123703
0.0349804
0.0588826
0.0799098
0.0950162
0.102008
0.100634
0.09102
0.075329
-0.179592
-0.222532
-0.254132
-0.269163
-0.266312
-0.245296
-0.208834
-0.161804
-0.112378
-0.0664501
-0.0292276
-0.00451153
0.00576551
0.00176303
-0.0143662
-0.0388475
-0.0668931
-0.0933915
-0.113624
-0.12393
-0.122195
-0.108124
-0.0832085
-0.0504638
-0.0139259
0.0209205
0.0497321
0.0692371
0.0784894
0.0771774
0.0674446
-0.169637
-0.207741
-0.233563
-0.242278
-0.233134
-0.206621
-0.166327
-0.118005
-0.0705532
-0.0303768
-0.00284494
0.0084964
0.00240273
-0.0198825
-0.0548199
-0.0970834
-0.140337
-0.178102
-0.20463
-0.215706
-0.209212
-0.185406
-0.146825
-0.0979036
-0.0442973
0.00654782
0.0488669
0.0784226
0.0938449
0.0947812
0.0840436
-0.15361
-0.185695
-0.205112
-0.207641
-0.193096
-0.162704
-0.120721
-0.073464
-0.0301271
0.00273334
0.0199123
0.0183711
-0.00229576
-0.039732
-0.0891093
-0.143766
-0.196129
-0.23873
-0.265203
-0.27119
-0.254942
-0.217579
-0.162909
-0.096911
-0.0268811
0.0376444
0.0896922
0.124384
0.140242
0.137225
0.119257
-0.133151
-0.158717
-0.171868
-0.169064
-0.150584
-0.118194
-0.0764744
-0.03187
0.00664707
0.0327475
0.0416545
0.0309397
0.000951432
-0.045117
-0.101591
-0.161036
-0.215265
-0.256429
-0.278074
-0.276088
-0.249299
-0.199692
-0.132147
-0.0538309
0.0267978
0.0986291
0.15404
0.187985
0.199158
0.188037
0.159645
-0.110155
-0.129395
-0.137112
-0.130454
-0.10999
-0.0777348
-0.0381835
0.00255599
0.0362579
0.0571711
0.0611368
0.0463176
0.0135711
-0.0335337
-0.0891115
-0.145698
-0.195252
-0.230233
-0.244633
-0.234882
-0.200413
-0.143818
-0.0705475
0.0117504
0.0942611
0.165295
0.217303
0.245532
0.249066
0.228907
0.190871
-0.0852487
-0.0987441
-0.102325
-0.0938762
-0.0740457
-0.0448236
-0.0100953
0.0248726
0.0531479
0.0699211
0.0718264
0.0575513
0.0281389
-0.0130265
-0.0605917
-0.107903
-0.147902
-0.174075
-0.181363
-0.166954
-0.130752
-0.0754876
-0.00641713
0.0693018
0.143559
0.205447
0.248267
0.268237
0.264682
0.238961
0.196853
-0.0602218
-0.0690047
-0.0701691
-0.0622109
-0.0457251
-0.0222257
0.00512766
0.0323567
0.0542427
0.0671718
0.0686672
0.0578507
0.0356605
0.00482979
-0.0304192
-0.0649024
-0.0931754
-0.110274
-0.112419
-0.0976248
-0.0660518
-0.0200834
0.0359375
0.0962098
0.154246
0.20124
0.232163
0.243768
0.236055
0.210295
0.171604
-0.0373869
-0.0424872
-0.0426379
-0.0368822
-0.0256251
-0.00974273
0.00862907
0.0268164
0.0415094
0.050381
0.0518537
0.0453983
0.0316717
0.0124992
-0.00933229
-0.0304272
-0.0472427
-0.0565764
-0.0560269
-0.0443901
-0.0218895
0.00977858
0.0476348
0.0877533
0.125791
0.15595
0.174679
0.179806
0.171791
0.151522
0.122963
-0.0362272
-0.0427436
-0.045614
-0.0431067
-0.0349705
-0.020923
-0.00214448
0.0195791
0.0416819
0.0618032
0.0775617
0.0868115
0.0878493
0.0795948
0.0616941
0.0345602
-0.00065384
-0.0421363
-0.0875528
-0.134199
-0.1792
-0.219711
-0.25315
-0.277375
-0.290866
-0.291416
-0.279148
-0.255019
-0.221743
-0.181706
-0.138736