# vtk DataFile Version 2.0
Func
ASCII
DATASET RECTILINEAR_GRID
DIMENSIONS 31 31 31
X_COORDINATES 31 double
-9.67742
-9.03226
-8.3871
-7.74194
-7.09677
-6.45161
-5.80645
-5.16129
-4.51613
-3.87097
-3.22581
-2.58065
-1.93548
-1.29032
-0.645161
0
0.645161
1.29032
1.93548
2.58065
3.22581
3.87097
4.51613
5.16129
5.80645
6.45161
7.09677
7.74194
8.3871
9.03226
9.67742
Y_COORDINATES 31 double
-9.67742
-9.03226
-8.3871
-7.74194
-7.09677
-6.45161
-5.80645
-5.16129
-4.51613
-3.87097
-3.22581
-2.58065
-1.93548
-1.29032
-0.645161
0
0.645161
1.29032
1.93548
2.58065
3.22581
3.87097
4.51613
5.16129
5.80645
6.45161
7.09677
7.74194
8.3871
9.03226
9.67742
Z_COORDINATES 31 double
-9.67742
-9.03226
-8.3871
-7.74194
-7.09677
-6.45161
-5.80645
-5.16129
-4.51613
-3.87097
-3.22581
-2.58065
-1.93548
-1.29032
-0.645161
0
0.645161
1.29032
1.93548
2.58065
3.22581
3.87097
4.51613
5.16129
5.80645
6.45161
7.09677
7.74194
8.3871
9.03226
9.67742
POINT_DATA 29791
SCALARS data double 1
LOOKUP_TABLE default
0.0274668
0.0360605
0.0447084
0.0521155
0.0577373
0.0607251
0.0606746
0.0573773
0.0510241
0.0418231
0.0302578
0.0170591
0.00316923
-0.0103302
-0.0223068
-0.0316826
-0.0375438
-0.0392467
-0.0365022
-0.0294379
-0.0186097
-0.00496965
0.0102283
0.0255453
0.0395186
0.0503156
0.056951
0.0587871
0.0561419
0.0494312
0.0398501
0.0385295
0.0510449
0.0636991
0.0749918
0.084088
0.0898155
0.091574
0.0889412
0.0820865
0.0711778
0.0567574
0.0397214
0.0212783
0.00285958
-0.0139955
-0.0277832
-0.0371881
-0.0412341
-0.0394104
-0.0317684
-0.0189482
-0.00214348
0.0170148
0.0366164
0.0546858
0.0686578
0.0772677
0.0796389
0.0760238
0.067011
0.0540027
0.0422516
0.0567738
0.0719705
0.0863434
0.0989801
0.108581
0.114274
0.115443
0.111987
0.103821
0.0912734
0.075091
0.0564182
0.0367162
0.0176465
0.00091591
-0.0118996
-0.0195355
-0.0211975
-0.016693
-0.00648392
0.00833349
0.0261358
0.0449391
0.0626276
0.0763772
0.0847151
0.0867735
0.0825972
0.0727511
0.0586395
0.0356976
0.0494358
0.0648548
0.0807765
0.0964444
0.110555
0.122138
0.130297
0.134397
0.133864
0.128505
0.118562
0.104732
0.0881275
0.0701922
0.0525615
0.0368882
0.0246522
0.0169793
0.0144807
0.0171622
0.0244049
0.0350335
0.0474479
0.0598298
0.069643
0.0755043
0.0764385
0.0723411
0.0635324
0.0511516
0.0202549
0.0304948
0.0437657
0.0594444
0.0770885
0.0955894
0.113904
0.130847
0.145058
0.155319
0.160702
0.160692
0.155267
0.144921
0.130629
0.113752
0.095877
0.0786323
0.0634961
0.0516083
0.0436369
0.0397037
0.039391
0.0418113
0.0457577
0.0493679
0.0515045
0.0512318
0.0481588
0.0422386
0.0341011
0.000809502
0.00616723
0.0159496
0.0301291
0.0486336
0.0706098
0.0949726
0.120254
0.144328
0.165315
0.181527
0.191663
0.194946
0.191219
0.180959
0.16522
0.145502
0.123565
0.101234
0.0801779
0.0617402
0.0468042
0.0357354
0.0283896
0.0242029
0.0220525
0.021048
0.0202771
0.0190596
0.0169435
0.0140535
-0.016306
-0.0153647
-0.00894379
0.00343943
0.0219977
0.0460777
0.0745379
0.105658
0.136674
0.165172
0.188878
0.205895
0.214903
0.215295
0.20723
0.191605
0.169923
0.144112
0.116304
0.0885981
0.0628486
0.0404882
0.0224248
0.00900569
7.27774e-05
-0.00500731
-0.00703137
-0.00696863
-0.0057381
-0.0041241
-0.00238062
-0.0243554
-0.0253914
-0.0204153
-0.0087367
0.00993057
0.03496
0.0650875
0.0983748
0.131682
0.162306
0.1877
0.205742
0.214965
0.214703
0.205156
0.187348
0.16298
0.134224
0.103473
0.0730821
0.0451225
0.02119
0.00228858
-0.0112082
-0.019496
-0.0232217
-0.0233556
-0.0210504
-0.0173623
-0.0132464
-0.00903953
-0.0188441
-0.0179668
-0.0111402
0.00214967
0.0219813
0.0475194
0.0772848
0.109145
0.139924
0.166911
0.18765
0.200225
0.203477
0.197131
0.181831
0.159053
0.130909
0.0999032
0.0686374
0.039523
0.0145256
-0.00502367
-0.0185158
-0.0260612
-0.0283751
-0.0266843
-0.0224044
-0.0169955
-0.0115246
-0.00691977
-0.00326953
0.00111317
0.00819894
0.0206637
0.0384816
0.0612522
0.0877069
0.116059
0.144
0.168644
0.187519
0.19858
0.200484
0.192759
0.175897
0.151309
0.121177
0.0881913
0.0552423
0.0250856
2.27915e-05
-0.0183524
-0.0293139
-0.0330318
-0.030494
-0.023301
-0.0137024
-0.003748
0.00472931
0.0107647
0.0136348
0.0137654
0.0318318
0.0484042
0.0694787
0.0942569
0.121686
0.149927
0.176843
0.199965
0.216939
0.225685
0.224764
0.2136
0.192614
0.163236
0.127785
0.0892419
0.0509148
0.0160703
-0.0124439
-0.03254
-0.0431315
-0.0442514
-0.0370062
-0.0234077
-0.00606563
0.0115846
0.0268323
0.0374891
0.0427638
0.0422413
0.036976
0.0657292
0.0927556
0.123337
0.155874
0.188647
0.21926
0.24526
0.264067
0.273951
0.273276
0.261226
0.237991
0.204842
0.164069
0.118802
0.0726995
0.0295693
-0.0070498
-0.0342926
-0.0503165
-0.0545238
-0.0476356
-0.0315771
-0.00923235
0.0159488
0.039535
0.0583121
0.0698498
0.0735345
0.0692569
0.0586182
0.0935356
0.129039
0.167281
0.206032
0.24308
0.27564
0.30108
0.316793
0.321633
0.314351
0.294634
0.263239
0.222024
0.173839
0.122295
0.0714178
0.0252454
-0.0126065
-0.0393488
-0.0533597
-0.0543813
-0.0435578
-0.0232785
0.00311088
0.0317439
0.0577039
0.0775812
0.0888909
0.0911327
0.0843949
0.0705655
0.107427
0.14687
0.188464
0.229684
0.268124
0.300914
0.325449
0.339232
0.341549
0.331435
0.308865
0.274849
0.231437
0.181589
0.128934
0.0774307
0.0309805
-0.00697838
-0.0338466
-0.0481713
-0.0498152
-0.0399734
-0.021011
0.00382176
0.0308077
0.0552501
0.0739273
0.08452
0.0865305
0.0800618
0.0669177
0.103952
0.141612
0.181063
0.219856
0.255754
0.286131
0.308658
0.321108
0.323013
0.313583
0.292856
0.261769
0.222152
0.176608
0.128306
0.0806855
0.0371358
0.00065153
-0.026478
-0.042923
-0.0484507
-0.0439385
-0.0312416
-0.0129615
0.0078954
0.0275714
0.0433988
0.0534285
0.0570489
0.0541799
0.0461545
0.085484
0.116361
0.148806
0.180755
0.210436
0.235749
0.254843
0.265918
0.268607
0.262225
0.246712
0.222688
0.191449
0.154885
0.115331
0.0753535
0.037527
0.00418487
-0.0228032
-0.0422125
-0.0535682
-0.0571643
-0.0539904
-0.045589
-0.0338367
-0.0210021
-0.00893051
0.000947926
0.00783192
0.0113101
0.0119399
0.0594437
0.0809554
0.103821
0.126515
0.14788
0.166474
0.181053
0.190345
0.194032
0.191527
0.182621
0.167518
0.146848
0.121621
0.0931561
0.0629719
0.0326659
0.00378338
-0.0223044
-0.0444984
-0.0620409
-0.074544
-0.0819871
-0.0846778
-0.083178
-0.0780148
-0.0700886
-0.060241
-0.0494637
-0.0385461
-0.0278595
0.0354728
0.0482273
0.0620124
0.0758035
0.0890239
0.100853
0.110659
0.117729
0.12186
0.122613
0.119694
0.112957
0.102424
0.0882801
0.0708699
0.0506846
0.0283496
0.00460636
-0.0197083
-0.0436758
-0.0663247
-0.0866665
-0.103755
-0.116743
-0.12495
-0.127248
-0.123624
-0.114343
-0.100504
-0.0832019
-0.0637117
0.0216915
0.0290036
0.0368395
0.0444803
0.0517398
0.0582325
0.0638496
0.0683991
0.0719333
0.0742639
0.0751577
0.0743122
0.0713615
0.0658958
0.057508
0.0458556
0.030738
0.0121754
-0.00952276
-0.0336929
-0.0593048
-0.0849926
-0.109154
-0.130081
-0.14613
-0.154893
-0.155599
-0.148016
-0.133205
-0.112399
-0.0875861
0.0216541
0.0280263
0.0342226
0.0395464
0.043942
0.0472056
0.0496034
0.0513815
0.0530239
0.0547009
0.0564262
0.0579896
0.0589375
0.0585887
0.0561053
0.0505996
0.0412742
0.0275711
0.00931151
-0.0131745
-0.0389922
-0.0666949
-0.094395
-0.119927
-0.141091
-0.154727
-0.159541
-0.154919
-0.14172
-0.121108
-0.0954862
0.0333267
0.0425808
0.0508152
0.0570809
0.0612229
0.0629914
0.0628802
0.0614902
0.0598749
0.0586531
0.0582503
0.0587799
0.0599849
0.0612275
0.0615569
0.0598324
0.0548969
0.0457696
0.0318355
0.0130255
-0.010085
-0.0362588
-0.0636905
-0.0901683
-0.113344
-0.129848
-0.138107
-0.137249
-0.127799
-0.110666
-0.0883278
0.0504554
0.0643355
0.0762984
0.0849612
0.0899481
0.0908343
0.0882417
0.0830712
0.076999
0.0711373
0.066422
0.0634388
0.062318
0.0626852
0.0637064
0.0642047
0.0628451
0.0583485
0.049713
0.0364303
0.0186247
-0.00289093
-0.0266727
-0.0507799
-0.0730342
-0.0902785
-0.10086
-0.103751
-0.0990774
-0.0873783
-0.0708946
0.0655684
0.0833705
0.0984158
0.108844
0.114071
0.113493
0.107829
0.0982601
0.0870364
0.0757497
0.0658536
0.0584375
0.0540756
0.0527361
0.0537966
0.0561438
0.0583572
0.0589306
0.0565133
0.0501524
0.0394682
0.0247487
0.00693755
-0.012462
-0.0316126
-0.0477984
-0.0594096
-0.065321
-0.0652654
-0.0593897
-0.0494644
0.0731183
0.0923915
0.108233
0.118402
0.122222
0.119009
0.109596
0.0954455
0.0792444
0.0629889
0.0485658
0.0374834
0.0306851
0.0284242
0.0302536
0.0351114
0.0414985
0.0477047
0.0520634
0.0532121
0.0502971
0.0431032
0.0320814
0.0182892
0.00320425
-0.0109349
-0.0225922
-0.0305565
-0.0342371
-0.0334325
-0.0293223
0.0713147
0.089164
0.103153
0.110861
0.11167
0.104956
0.0917048
0.0736393
0.0536967
0.0341504
0.0171653
0.00450059
-0.00269712
-0.00403848
8.51747e-05
0.00858079
0.0198306
0.0319225
0.042916
0.0511151
0.0552939
0.0548507
0.0498631
0.0410531
0.0296334
0.0174622
0.00604161
-0.00331411
-0.0097846
-0.0129039
-0.013249
0.0620658
0.0763834
0.0867001
0.0906503
0.0877929
0.0776863
0.0614812
0.0411057
0.0195483
-0.000798097
-0.0176787
-0.0292837
-0.0344586
-0.0328514
-0.0249353
-0.0119254
0.00440269
0.0219497
0.0385671
0.0523359
0.0618026
0.0661457
0.0652415
0.0596389
0.0504267
0.0392279
0.0275792
0.0169217
0.00821149
0.00209513
-0.00148844
0.0491083
0.059181
0.065401
0.0656816
0.0598088
0.0475743
0.0302528
0.00985832
-0.0107618
-0.0292722
-0.0435206
-0.0518341
-0.0532168
-0.0474839
-0.0352731
-0.0179516
0.00257045
0.02408
0.0443363
0.0613444
0.0735892
0.0801998
0.0810121
0.0765413
0.0678595
0.0564586
0.0439448
0.0318677
0.0212345
0.0127933
0.00687652
0.0360518
0.04232
0.0451663
0.0428963
0.0355004
0.0229834
0.00665513
-0.011538
-0.0290484
-0.0437593
-0.0537768
-0.0576961
-0.0547751
-0.0450448
-0.0293053
-0.00902426
0.0138482
0.0371134
0.0585864
0.0763516
0.0889802
0.0956803
0.0963472
0.0915286
0.0823083
0.0700721
0.0564624
0.0430643
0.0308691
0.0206623
0.01299
0.0249148
0.0284326
0.0291727
0.0258909
0.0186965
0.00773901
-0.00578415
-0.0201648
-0.0332945
-0.0434169
-0.0490098
-0.0490041
-0.0429243
-0.0309714
-0.0140055
0.00655345
0.028895
0.0510281
0.0710111
0.0871719
0.0982934
0.103738
0.103485
0.0980875
0.0885692
0.0761394
0.0623458
0.0486925
0.0360497
0.0251711
0.0165704
0.0160532
0.0178665
0.017661
0.0146051
0.00885226
0.000574275
-0.00922086
-0.0192222
-0.0278554
-0.0338124
-0.0359924
-0.0336655
-0.0265735
-0.0149865
0.00032041
0.0181516
0.037028
0.0553537
0.0715972
0.084459
0.0930138
0.0968034
0.0958581
0.0906623
0.0820633
0.0710037
0.0587755
0.0465855
0.03516
0.0251343
0.0168945
0.00910095
0.00989193
0.00944351
0.00722303
0.00339447
-0.00189531
-0.00796035
-0.0139193
-0.0187681
-0.0216689
-0.0219334
-0.0191295
-0.0131431
-0.00421074
0.00710004
0.0199509
0.0333259
0.0461434
0.0573762
0.0661612
0.0718913
0.074274
0.0733449
0.0694425
0.0631438
0.0550659
0.0460877
0.0370123
0.0283884
0.0207028
0.0141372
0.044982
0.058585
0.071656
0.082242
0.0894449
0.0920332
0.0894524
0.0814862
0.0686752
0.051518
0.0309177
0.00812201
-0.0153432
-0.0377881
-0.057492
-0.0728545
-0.0825489
-0.0856668
-0.0818325
-0.0712839
-0.0548802
-0.0340486
-0.0106492
0.0131985
0.0353416
0.053101
0.0650972
0.0703875
0.0692249
0.0622131
0.0508356
0.0633577
0.0830525
0.102113
0.118132
0.129798
0.135472
0.134324
0.125861
0.110749
0.0895254
0.063272
0.0335501
0.00232143
-0.0281929
-0.0556843
-0.0779589
-0.093144
-0.0998911
-0.0975407
-0.0862485
-0.0670063
-0.0415837
-0.0123639
0.0178839
0.0463003
0.0691842
0.0848501
0.0920282
0.0907493
0.0817739
0.0668523
0.0714929
0.094615
0.117687
0.138154
0.154572
0.165131
0.168612
0.164323
0.152674
0.13393
0.108956
0.0791704
0.0464935
0.0132142
-0.0181833
-0.0452328
-0.0657194
-0.0779167
-0.0807917
-0.074173
-0.0588058
-0.0363124
-0.00904468
0.0201525
0.0482523
0.0712499
0.0871868
0.0948063
0.0937855
0.0848068
0.0695445
0.0649401
0.0875786
0.111488
0.134427
0.155148
0.171765
0.18297
0.187758
0.185859
0.176921
0.161133
0.139252
0.1126
0.0829915
0.0525995
0.0237749
-0.00118066
-0.0202602
-0.0319808
-0.0355895
-0.0311682
-0.0196513
-0.00273474
0.0173092
0.0379043
0.0555281
0.0683376
0.0748837
0.0746555
0.0679819
0.0560639
0.0450821
0.0633168
0.0846498
0.107563
0.131238
0.153983
0.174426
0.191239
0.203164
0.208975
0.207864
0.199544
0.18434
0.163193
0.137609
0.109535
0.0811632
0.0546962
0.0321041
0.0148866
0.00390531
-0.000711989
0.000432459
0.00610043
0.0146063
0.0234541
0.0311106
0.0361418
0.0376889
0.0355497
0.0301177
0.0185286
0.0301772
0.0468534
0.0678845
0.0929611
0.120658
0.149587
0.178096
0.203832
0.224649
0.238681
0.244539
0.241489
0.229551
0.209525
0.182923
0.151808
0.118568
0.0856616
0.0553412
0.0294269
0.00912747
-0.00504616
-0.0132756
-0.0163345
-0.0156298
-0.0124054
-0.00810966
-0.00392837
-0.000628561
0.00138742
-0.00634641
-0.00109026
0.0107166
0.0291671
0.0543545
0.0850608
0.119861
0.156791
0.192543
0.224208
0.249071
0.264894
0.270163
0.264256
0.247522
0.221251
0.187518
0.148952
0.108453
0.0688866
0.0327941
0.00215509
-0.0217636
-0.0384623
-0.0481585
-0.0515667
-0.0498563
-0.0445923
-0.0372213
-0.0289567
-0.0207566
-0.02025
-0.01849
-0.00934528
0.00766515
0.0327566
0.0647226
0.101995
0.14231
0.181748
0.216951
0.24478
0.262648
0.268806
0.262539
0.244247
0.215406
0.178382
0.136161
0.0920244
0.049196
0.0105193
-0.0218155
-0.0464345
-0.0628363
-0.0713285
-0.0726971
-0.068397
-0.0602666
-0.0498977
-0.0387091
-0.0277394
-0.016852
-0.0136712
-0.00306084
0.015341
0.0414984
0.0739551
0.110853
0.149613
0.186164
0.217074
0.239272
0.250406
0.24912
0.235225
0.209739
0.174778
0.133303
0.0887796
0.0447928
0.00464733
-0.0289784
-0.0542959
-0.0705289
-0.0779077
-0.0775234
-0.0710776
-0.0606634
-0.0485382
-0.0363001
-0.0252836
-0.0160843
0.0054001
0.015572
0.0325457
0.056074
0.0855128
0.118916
0.15399
0.187816
0.21663
0.237253
0.247114
0.244588
0.229232
0.201891
0.164643
0.120593
0.0735187
0.0274398
-0.0138397
-0.0471737
-0.0704246
-0.0826857
-0.0843187
-0.0768382
-0.0626297
-0.0449561
-0.0267754
-0.0108236
0.00141719
0.00895072
0.0120389
0.041889
0.0633676
0.0906158
0.12246
0.157426
0.192948
0.22622
0.253985
0.273121
0.280916
0.275549
0.256389
0.224164
0.180976
0.130141
0.0758597
0.0227643
-0.0246016
-0.0623088
-0.0875201
-0.0988255
-0.096406
-0.0819663
-0.0584909
-0.0298115
-0.000967142
0.0242194
0.0425859
0.0528473
0.0544872
0.0487971
0.0826565
0.116732
0.155448
0.196667
0.23808
0.276546
0.308803
0.331313
0.341746
0.33792
0.318794
0.284709
0.237488
0.180364
0.117717
0.0546516
-0.0035364
-0.0519487
-0.0866482
-0.105154
-0.106751
-0.0925872
-0.0655172
-0.0297469
0.00972215
0.0463924
0.0758236
0.0946045
0.101658
0.0969352
0.0826211
0.11539
0.159439
0.207151
0.255671
0.30209
0.342922
0.374652
0.393618
0.398228
0.386776
0.358833
0.315434
0.259124
0.193818
0.124484
0.0566624
-0.0040949
-0.0528313
-0.0857509
-0.1007
-0.0974395
-0.0776943
-0.0449383
-0.00398162
0.0396417
0.0787683
0.10878
0.126283
0.130351
0.121234
0.101606
0.129721
0.177712
0.228648
0.279416
0.326922
0.367695
0.398297
0.415183
0.417311
0.403329
0.37314
0.328052
0.270781
0.205293
0.13648
0.0696851
0.0101823
-0.0373952
-0.0695697
-0.0844514
-0.0819685
-0.0638882
-0.0335956
0.004307
0.0445826
0.0804712
0.107698
0.123182
0.126051
0.116584
0.0973694
0.121277
0.165651
0.212487
0.25892
0.302145
0.339104
0.366805
0.382113
0.384307
0.372266
0.345953
0.306519
0.256301
0.198678
0.137795
0.0781649
0.0242396
-0.0200589
-0.0517577
-0.0691807
-0.0721314
-0.0619061
-0.0411174
-0.0133743
0.0171843
0.0452664
0.0674186
0.0811374
0.0855023
0.0805406
0.0681806
0.0937009
0.128002
0.164381
0.200624
0.234598
0.263963
0.28649
0.299729
0.303103
0.295671
0.277274
0.248611
0.211244
0.167496
0.120267
0.0727588
0.0281809
-0.010568
-0.0411873
-0.0622088
-0.0731278
-0.0744223
-0.0674561
-0.0542895
-0.0373912
-0.0198006
-0.00382053
0.00880781
0.0170648
0.0205198
0.0200155
0.0575327
0.0787348
0.10157
0.124632
0.146634
0.166085
0.181691
0.191862
0.196134
0.19377
0.184462
0.168377
0.146161
0.118903
0.0880476
0.055267
0.0223245
-0.00907459
-0.0374189
-0.0614967
-0.0804695
-0.0938995
-0.101745
-0.104318
-0.102201
-0.0958659
-0.0863383
-0.0745188
-0.0614971
-0.0482141
-0.0350855
0.0262083
0.0357471
0.0462758
0.0570771
0.067628
0.0772085
0.0854437
0.0916396
0.0955647
0.0967925
0.0949914
0.0899301
0.0814829
0.0696312
0.0544751
0.0362363
0.0152741
-0.00790091
-0.0326126
-0.0579957
-0.0830075
-0.106455
-0.127067
-0.143584
-0.154865
-0.159019
-0.155872
-0.145509
-0.128979
-0.107614
-0.0829782
0.010777
0.0138043
0.0169195
0.0197463
0.0222372
0.0241907
0.0259728
0.0276865
0.0295672
0.0316403
0.0337802
0.0356587
0.0367284
0.0362391
0.0333114
0.0270403
0.016631
0.00154927
-0.0183358
-0.0426124
-0.0702709
-0.0997157
-0.128879
-0.1554
-0.176879
-0.189685
-0.19268
-0.18525
-0.168237
-0.14311
-0.112243
0.0156471
0.0188347
0.0209729
0.0215754
0.0206917
0.0183096
0.0152699
0.0122945
0.0103386
0.0100191
0.0116731
0.0152363
0.0201807
0.0255131
0.0298687
0.0316679
0.0293306
0.0215207
0.00738635
-0.0132075
-0.0395578
-0.0700992
-0.102518
-0.13397
-0.161407
-0.180299
-0.188871
-0.185976
-0.172078
-0.148494
-0.117932
0.0372511
0.0461259
0.0526733
0.0558929
0.0556032
0.0516888
0.0452085
0.0373207
0.029877
0.0241793
0.0212331
0.0215475
0.0250088
0.0308337
0.0376431
0.0436267
0.0467943
0.0452701
0.0375971
0.0230365
0.00175235
-0.0251135
-0.0555183
-0.0867186
-0.115617
-0.137597
-0.150577
-0.153056
-0.145018
-0.127373
-0.102698
0.0661346
0.0831175
0.0964941
0.104514
0.106595
0.102351
0.0928893
0.0796785
0.0655002
0.0523591
0.0420242
0.0357484
0.0340737
0.0367208
0.0426197
0.0500504
0.0568971
0.0609603
0.0602946
0.0535528
0.0402259
0.0207764
-0.00337797
-0.0300149
-0.0564193
-0.0784782
-0.0940672
-0.101497
-0.100244
-0.0906851
-0.0749043
0.0913537
0.115292
0.134498
0.146459
0.150218
0.145106
0.132227
0.11331
0.0919419
0.0707624
0.0522611
0.0384276
0.0304933
0.0287594
0.0325772
0.040453
0.0502889
0.0596924
0.0663299
0.0682973
0.0644049
0.0543666
0.038847
0.0193747
-0.0019136
-0.0216693
-0.0378786
-0.0487678
-0.0533826
-0.0515687
-0.0447262
0.104981
0.13221
0.153875
0.166893
0.170103
0.162677
0.145754
0.121322
0.0935275
0.0654955
0.0402669
0.0203946
0.00764066
0.00275815
0.00543197
0.0143554
0.0274553
0.0421947
0.0559348
0.0663184
0.0715891
0.0708219
0.0640228
0.0520938
0.0366354
0.0202749
0.00489564
-0.0076878
-0.016224
-0.0201417
-0.0201381
0.104647
0.130891
0.151128
0.162033
0.162466
0.151622
0.130748
0.102087
0.0700389
0.0380078
0.00932876
-0.0131644
-0.0274624
-0.0326196
-0.0288307
-0.0173649
-0.000346804
0.0195447
0.0394432
0.0566852
0.0691479
0.0755032
0.0753453
0.0691842
0.0582886
0.0448031
0.0305621
0.0174325
0.00680966
-0.000475389
-0.00453356
0.0933015
0.115436
0.131547
0.138412
0.135107
0.12101
0.0975258
0.0670943
0.0340749
0.00191965
-0.0260273
-0.0469624
-0.0589409
-0.0611109
-0.053783
-0.038355
-0.0170882
0.00720008
0.0315067
0.0530329
0.0695248
0.0795323
0.0825355
0.0789423
0.0699462
0.0574932
0.0434931
0.0299018
0.018126
0.0091148
0.00314562
0.0763138
0.093135
0.104331
0.107082
0.100768
0.0850351
0.0614133
0.032408
0.00207682
-0.0263185
-0.049692
-0.0655416
-0.0722393
-0.0692371
-0.0571127
-0.0374728
-0.0127201
0.014259
0.0404614
0.063144
0.0801517
0.0901595
0.0927779
0.0885345
0.0787296
0.0652931
0.050284
0.0357447
0.0229941
0.0129921
0.00623895
0.0588239
0.0707521
0.077801
0.0776995
0.0701268
0.0549918
0.0338551
0.00911088
-0.0156735
-0.0376183
-0.0540875
-0.0630486
-0.0633206
-0.0547382
-0.0381663
-0.0153834
0.0111565
0.0386294
0.0641917
0.0853278
0.100149
0.107603
0.107552
0.100725
0.0885695
0.0730288
0.056282
0.040394
0.026543
0.0156442
0.00822487
0.0433397
0.0515578
0.0558481
0.0545855
0.0476528
0.0351636
0.0185234
-0.000184484
-0.0180391
-0.0326984
-0.0420966
-0.0447349
-0.0398775
-0.0276703
-0.00913033
0.013978
0.0393646
0.0644918
0.0868817
0.104414
0.115578
0.11964
0.116689
0.107575
0.0937616
0.0770565
0.0595785
0.0432785
0.029111
0.0178897
0.00997566
0.0300898
0.0356306
0.0383004
0.037047
0.031874
0.0229286
0.011418
-0.00107012
-0.0123582
-0.020719
-0.0246817
-0.023247
-0.0160269
-0.00332281
0.0138996
0.0341203
0.0554486
0.0758479
0.0933783
0.106426
0.113893
0.115323
0.110916
0.101476
0.0882765
0.072795
0.0568433
0.0420175
0.029068
0.018664
0.0109752
0.018702
0.0221318
0.0237399
0.0229005
0.0196819
0.0142001
0.00729749
6.47539e-05
-0.00609969
-0.0100835
-0.0109668
-0.00816104
-0.00149673
0.0087319
0.0217919
0.0365926
0.0518137
0.0660594
0.0780221
0.0866334
0.0911896
0.0914277
0.0875348
0.0801063
0.0700444
0.0583598
0.0463186
0.0350006
0.0249764
0.016792
0.0103866
0.0619043
0.079768
0.0960722
0.108263
0.11512
0.115141
0.107739
0.0929063
0.0717221
0.0451362
0.0145808
-0.0181344
-0.0509283
-0.0816029
-0.108008
-0.128219
-0.140702
-0.144474
-0.139216
-0.125349
-0.104031
-0.077074
-0.0467819
-0.0157413
0.0134421
0.0376371
0.0550746
0.064781
0.0668472
0.0619073
0.0516439
0.0883271
0.114331
0.138239
0.156774
0.168178
0.170498
0.162858
0.145028
0.118489
0.0844164
0.044622
0.00142833
-0.0424669
-0.0841829
-0.120866
-0.149921
-0.169229
-0.17736
-0.173736
-0.158746
-0.133749
-0.100982
-0.0633629
-0.0242243
0.0130277
0.0441635
0.0670022
0.0802593
0.0836991
0.0780995
0.0653763
0.102985
0.134112
0.163471
0.187447
0.204059
0.21115
0.207432
0.192561
0.167945
0.134603
0.0942359
0.0491202
0.00197992
-0.044193
-0.0863505
-0.121624
-0.147561
-0.162364
-0.165081
-0.155767
-0.135513
-0.106375
-0.0712002
-0.0333556
0.0036197
0.0352713
0.0591011
0.0738548
0.0788604
0.0747737
0.0632854
0.0998132
0.131472
0.162671
0.18999
0.211651
0.225361
0.229835
0.224436
0.209958
0.186807
0.156001
0.119109
0.0781901
0.0356724
-0.00579864
-0.0435528
-0.0751085
-0.0984063
-0.112021
-0.115348
-0.10869
-0.0932574
-0.071058
-0.0446992
-0.0171001
0.00800127
0.0282904
0.0422911
0.0490904
0.0488517
0.0426138
0.0797934
0.107199
0.136123
0.163907
0.189267
0.210091
0.225128
0.233394
0.23464
0.22832
0.214334
0.193052
0.165363
0.132644
0.0967066
0.0596856
0.0238704
-0.00850195
-0.0354665
-0.0555465
-0.0679127
-0.0724729
-0.0698764
-0.0614269
-0.0489076
-0.0347176
-0.0207395
-0.00847298
0.000783706
0.00651245
0.00870117
0.0501398
0.0703152
0.0941916
0.120073
0.147289
0.173986
0.198999
0.220965
0.238403
0.249713
0.253568
0.249045
0.235776
0.214026
0.184737
0.149494
0.110395
0.0698702
0.0304411
-0.00552493
-0.0360505
-0.0597354
-0.075872
-0.0844677
-0.0861818
-0.0820609
-0.0735911
-0.06235
-0.0499809
-0.0377034
-0.0265319
0.0199044
0.0323439
0.0503028
0.0730022
0.100284
0.130509
0.162537
0.194636
0.224169
0.248628
0.265667
0.273342
0.270341
0.256148
0.231156
0.19667
0.154794
0.108234
0.0600382
0.0132969
-0.0291551
-0.0650043
-0.0926483
-0.11129
-0.120935
-0.121827
-0.115337
-0.103236
-0.0874309
-0.0696706
-0.0516166
-0.000258523
0.00699102
0.0208625
0.0411074
0.0677748
0.0992421
0.134233
0.170646
0.20503
0.234295
0.255548
0.266388
0.265199
0.251337
0.225254
0.188485
0.143492
0.0934197
0.0417747
-0.0079283
-0.0525159
-0.0894593
-0.117078
-0.134629
-0.142287
-0.14048
-0.130931
-0.115767
-0.0970256
-0.0766606
-0.0563454
-0.00285998
0.00410748
0.0179721
0.0384717
0.0654469
0.0970374
0.131598
0.166656
0.198411
0.2236
0.239327
0.243403
0.234627
0.21296
0.179584
0.136814
0.0878448
0.0364172
-0.0135897
-0.0585728
-0.095587
-0.122639
-0.138839
-0.144408
-0.140545
-0.128927
-0.112083
-0.0926199
-0.072557
-0.0536706
-0.036964
0.0144596
0.0269795
0.045976
0.0706416
0.100212
0.132363
0.164858
0.194836
0.218634
0.23317
0.23602
0.225753
0.202177
0.16643
0.120939
0.0691983
0.0153943
-0.0360531
-0.0809907
-0.116013
-0.138853
-0.148626
-0.145878
-0.132454
-0.111188
-0.0857882
-0.0598659
-0.0365321
-0.0176496
-0.00448952
0.00313699
0.0471673
0.069887
0.0982585
0.130591
0.165272
0.199413
0.230061
0.253983
0.268018
0.269489
0.256714
0.229303
0.188334
0.136357
0.0772125
0.0156723
-0.0430648
-0.0939541
-0.13269
-0.156241
-0.163228
-0.154099
-0.131052
-0.0977416
-0.058781
-0.0201262
0.013551
0.0387416
0.0538322
0.0582364
0.0535279
0.0846024
0.118947
0.158033
0.199259
0.240177
0.27741
0.307361
0.326503
0.33235
0.322702
0.296633
0.254739
0.199246
0.133915
0.0637553
-0.00545951
-0.0677889
-0.117792
-0.151167
-0.165312
-0.159675
-0.135857
-0.0974212
-0.0494751
0.00198381
0.0492116
0.0868236
0.111143
0.12083
0.115959
0.0992753
0.113299
0.156408
0.203482
0.251313
0.296892
0.336633
0.366569
0.383066
0.384289
0.368464
0.335224
0.285816
0.223147
0.151627
0.0768209
0.00490198
-0.0579752
-0.106364
-0.136165
-0.145174
-0.133388
-0.103053
-0.0584125
-0.0052182
0.0499817
0.0987016
0.135434
0.15664
0.16121
0.149655
0.125335
0.121927
0.167179
0.215825
0.26456
0.310306
0.34966
0.378739
0.394095
0.394384
0.378148
0.345287
0.297215
0.236874
0.168567
0.0975977
0.0297605
-0.0292513
-0.0744727
-0.102243
-0.110692
-0.099993
-0.072378
-0.0318849
0.0161082
0.0655472
0.108567
0.14022
0.157417
0.159197
0.146151
0.121511
0.106051
0.145223
0.187335
0.229544
0.269234
0.3036
0.329351
0.343579
0.345237
0.333107
0.307083
0.268297
0.219111
0.162985
0.104185
0.04736
-0.00291529
-0.0426431
-0.0688503
-0.0799624
-0.0759983
-0.0585731
-0.030703
0.00355319
0.0396058
0.0715195
0.0955125
0.109205
0.111695
0.1033
0.0863947
0.0705152
0.0968344
0.12559
0.154794
0.182707
0.20742
0.226658
0.238373
0.241706
0.235681
0.220054
0.195397
0.1631
0.125289
0.0846419
0.0441269
0.00671016
-0.0249525
-0.0487937
-0.0635615
-0.0689406
-0.0655606
-0.0548946
-0.0390633
-0.0205474
-0.00244681
0.0130163
0.0243276
0.030619
0.0316812
0.0285445
0.0280874
0.0389365
0.0514958
0.0647372
0.07794
0.0901801
0.100411
0.107648
0.111262
0.110615
0.105372
0.0955373
0.0814603
0.0638079
0.0435035
0.0216376
-0.00063006
-0.0221696
-0.0419662
-0.0591806
-0.0731891
-0.0835953
-0.0902285
-0.0931243
-0.0924844
-0.0882981
-0.081116
-0.0715396
-0.0603512
-0.0483285
-0.035921
-0.00538552
-0.00733464
-0.00861827
-0.00953524
-0.00995364
-0.00996341
-0.00943804
-0.00827861
-0.00667757
-0.00477379
-0.00278056
-0.00101463
9.2796e-05
4.85521e-06
-0.0018806
-0.006169
-0.0133893
-0.0238959
-0.0377698
-0.0547151
-0.0740104
-0.0945101
-0.114716
-0.132909
-0.147321
-0.155224
-0.155662
-0.148376
-0.133932
-0.113494
-0.0887556
-0.0173569
-0.0251483
-0.0336314
-0.0428565
-0.0522514
-0.0614087
-0.0693185
-0.0749466
-0.0777552
-0.0772037
-0.0730804
-0.0656118
-0.0555177
-0.0440044
-0.032668
-0.0233316
-0.0178321
-0.0177686
-0.024251
-0.0376548
-0.0574817
-0.0823267
-0.109978
-0.137635
-0.16223
-0.179226
-0.186523
-0.183145
-0.169262
-0.146091
-0.116052
-0.00364147
-0.00878327
-0.0161841
-0.0262138
-0.0383634
-0.0521377
-0.0660538
-0.0783974
-0.087625
-0.0923793
-0.0917274
-0.0853639
-0.0737367
-0.0580827
-0.0403311
-0.0229019
-0.00841903
0.000635987
0.00228192
-0.00461081
-0.020093
-0.0430468
-0.0712613
-0.101665
-0.130709
-0.153166
-0.166278
-0.168526
-0.159545
-0.140227
-0.113095
0.0301773
0.0344466
0.0348443
0.0302091
0.0205724
0.00616577
-0.0114435
-0.0301272
-0.0471908
-0.06041
-0.0679353
-0.0685937
-0.0621021
-0.049176
-0.0314815
-0.011452
0.00801538
0.0239428
0.0336866
0.035357
0.0281217
0.0123686
-0.010303
-0.0372669
-0.0652339
-0.0893029
-0.106519
-0.115032
-0.11388
-0.103349
-0.0855171
0.0715813
0.087958
0.0989924
0.102497
0.0978296
0.0847684
0.0647114
0.0400017
0.0144357
-0.0089539
-0.0273682
-0.0386339
-0.0415056
-0.0358603
-0.0227242
-0.00414494
0.0170889
0.0378223
0.0549664
0.0659522
0.0690945
0.0638292
0.0507925
0.0317205
0.00915898
-0.012963
-0.0318592
-0.0455355
-0.0524885
-0.0523124
-0.0463004
0.106745
0.133419
0.153596
0.164114
0.16372
0.15174
0.129332
0.0989519
0.065258
0.0319277
0.00256611
-0.0197563
-0.0328779
-0.035818
-0.0288784
-0.0135791
0.00758036
0.0314657
0.0547337
0.0742948
0.0877185
0.0935321
0.0913821
0.0820233
0.0671191
0.0494543
0.0314552
0.0151271
0.00234234
-0.00590487
-0.0100573
0.126126
0.158233
0.183137
0.196997
0.198205
0.185798
0.160765
0.125649
0.0856014
0.0446997
0.00706738
-0.0236306
-0.0446048
-0.0542629
-0.0523636
-0.0399992
-0.0193939
0.00641131
0.0339683
0.0598806
0.0812272
0.0959009
0.102823
0.101998
0.0943877
0.0818781
0.0665345
0.050314
0.0352283
0.0226162
0.0127132
0.127435
0.159491
0.184156
0.197345
0.197414
0.183345
0.1561
0.118292
0.0751678
0.0309193
-0.0101782
-0.0442798
-0.0683954
-0.0807238
-0.0808231
-0.0696088
-0.0491687
-0.0224648
0.00706329
0.0359462
0.0611075
0.0802118
0.0918938
0.0958353
0.0926784
0.0838911
0.0713257
0.0569076
0.0425629
0.0296982
0.0189168
0.115011
0.14309
0.164096
0.174139
0.171803
0.156232
0.128468
0.0911502
0.0492777
0.00687473
-0.0319943
-0.0637195
-0.0855442
-0.0958755
-0.0944336
-0.0822336
-0.061394
-0.0348381
-0.00590503
0.0220828
0.0462246
0.0643701
0.0753239
0.0789044
0.0758524
0.0677046
0.0563174
0.0436476
0.0313713
0.02075
0.0124136
0.0958264
0.118362
0.1346
0.141177
0.137041
0.121621
0.0960622
0.0629133
0.0266648
-0.00907374
-0.0407483
-0.0653089
-0.0805557
-0.0853989
-0.0799621
-0.0655274
-0.0443238
-0.0192221
0.00664561
0.0302952
0.0492603
0.0618807
0.0674533
0.0662461
0.0593752
0.0487266
0.0363179
0.0241731
0.0136354
0.00570991
0.000854363
0.076275
0.093687
0.105867
0.110148
0.10585
0.0926991
0.0718911
0.0457442
0.0180927
-0.00802687
-0.0297402
-0.0447161
-0.0514497
-0.0494562
-0.0393206
-0.0226034
-0.00161132
0.0209103
0.0421393
0.0595495
0.071235
0.0761437
0.0741667
0.0661009
0.0534865
0.038568
0.0235497
0.0104991
0.000429425
-0.00590529
-0.00837375
0.0587492
0.0721363
0.0814288
0.0847744
0.0817693
0.0724083
0.0577615
0.0397681
0.0215085
0.00535121
-0.00656729
-0.0126406
-0.0120074
-0.0046813
0.00844446
0.0257131
0.0449315
0.0636554
0.0795103
0.090509
0.0953153
0.0934204
0.0851776
0.0717297
0.0548267
0.0367936
0.0198487
0.00595639
-0.00417178
-0.00998985
-0.0117347
0.0429672
0.0530515
0.0601839
0.0632064
0.0619131
0.0563529
0.0474995
0.0367758
0.0264568
0.0182366
0.0135691
0.0134532
0.0182855
0.0277802
0.0409921
0.0564287
0.0722463
0.0864859
0.0973285
0.103339
0.103665
0.0981522
0.0873527
0.0724412
0.0550409
0.0371833
0.0207992
0.00758002
-0.002015
-0.00759316
-0.00960373
0.0283259
0.035231
0.0402387
0.0427232
0.0425939
0.0398703
0.0352616
0.0297546
0.0248078
0.0214979
0.0207102
0.0230022
0.0285125
0.0369173
0.0474586
0.0590317
0.070326
0.07999
0.0868062
0.0898528
0.088632
0.0831423
0.0738701
0.0617268
0.0479126
0.0338601
0.0209851
0.0104587
0.00260388
-0.002223
-0.00461269
0.0736226
0.0937805
0.111108
0.12265
0.127025
0.122613
0.109082
0.0867893
0.0574666
0.022598
-0.0158582
-0.0556284
-0.0942693
-0.12935
-0.158621
-0.180186
-0.192645
-0.19522
-0.187838
-0.171179
-0.146635