# vtk DataFile Version 2.0
Func
ASCII
DATASET RECTILINEAR_GRID
DIMENSIONS 31 31 31
X_COORDINATES 31 double
-9.67742
-9.03226
-8.3871
-7.74194
-7.09677
-6.45161
-5.80645
-5.16129
-4.51613
-3.87097
-3.22581
-2.58065
-1.93548
-1.29032
-0.645161
0
0.645161
1.29032
1.93548
2.58065
3.22581
3.87097
4.51613
5.16129
5.80645
6.45161
7.09677
7.74194
8.3871
9.03226
9.67742
Y_COORDINATES 31 double
-9.67742
-9.03226
-8.3871
-7.74194
-7.09677
-6.45161
-5.80645
-5.16129
-4.51613
-3.87097
-3.22581
-2.58065
-1.93548
-1.29032
-0.645161
0
0.645161
1.29032
1.93548
2.58065
3.22581
3.87097
4.51613
5.16129
5.80645
6.45161
7.09677
7.74194
8.3871
9.03226
9.67742
Z_COORDINATES 31 double
-9.67742
-9.03226
-8.3871
-7.74194
-7.09677
-6.45161
-5.80645
-5.16129
-4.51613
-3.87097
-3.22581
-2.58065
-1.93548
-1.29032
-0.645161
0
0.645161
1.29032
1.93548
2.58065
3.22581
3.87097
4.51613
5.16129
5.80645
6.45161
7.09677
7.74194
8.3871
9.03226
9.67742
POINT_DATA 29791
SCALARS data double 1
LOOKUP_TABLE default
-0.0559682
-0.0670232
-0.0737223
-0.0731234
-0.0648035
-0.0480662
-0.0241485
0.00500039
0.0364725
0.0678161
0.0966219
0.120822
0.138878
0.149929
0.153822
0.15106
0.142681
0.130095
0.11489
0.0986369
0.0827163
0.0681914
0.0557386
0.0456327
0.0377982
0.0317545
0.0269754
0.0229036
0.0192149
0.0155556
0.0120017
-0.0751493
-0.0896736
-0.0973887
-0.0950847
-0.0820042
-0.0573931
-0.0231824
0.0179071
0.0616426
0.104509
0.143121
0.174626
0.196981
0.209146
0.211119
0.203842
0.18901
0.168811
0.145639
0.121802
0.0992691
0.0794886
0.0633001
0.0509282
0.0420709
0.0358203
0.031283
0.027537
0.023982
0.0201086
0.0159031
-0.0747447
-0.0878249
-0.0930174
-0.0871666
-0.0696557
-0.0400814
-0.000567747
0.0455229
0.0934221
0.139135
0.178906
0.209668
0.229351
0.237082
0.233204
0.219145
0.197161
0.170025
0.140665
0.111819
0.085738
0.0639851
0.0473448
0.0358382
0.0288463
0.025045
0.02316
0.0219858
0.0206191
0.0184184
0.0152364
-0.0505747
-0.0566728
-0.055565
-0.0447564
-0.0241403
0.00630633
0.0442342
0.0862878
0.128171
0.166199
0.197029
0.218076
0.22778
0.225776
0.212871
0.190884
0.162379
0.130331
0.0977619
0.0673976
0.0413821
0.0210941
0.0070767
-0.000923918
-0.00381641
-0.00316454
-0.000459756
0.00289111
0.00574641
0.00737328
0.00738383
-0.00892502
-0.00377535
0.00615815
0.0223729
0.0443294
0.071496
0.101735
0.132226
0.160021
0.182457
0.197261
0.20286
0.198562
0.184644
0.162301
0.133487
0.100676
0.0665767
0.0338325
0.00473877
-0.0189745
-0.0362782
-0.0468866
-0.0512077
-0.0502177
-0.0453386
-0.0379971
-0.0295606
-0.0213646
-0.0141953
-0.0088653
0.0371761
0.0541511
0.0726866
0.0932273
0.114639
0.135941
0.155482
0.171363
0.182429
0.187384
0.185288
0.175717
0.158832
0.135391
0.10669
0.0744281
0.0405653
0.00713213
-0.0239539
-0.0510556
-0.0729408
-0.0888572
-0.0985603
-0.102281
-0.100664
-0.0944603
-0.0846705
-0.0723692
-0.0590254
-0.0454951
-0.033222
0.0749255
0.10065
0.125025
0.147429
0.166411
0.180787
0.189606
0.192063
0.188782
0.17981
0.165416
0.146094
0.122537
0.0955904
0.0662127
0.0354249
0.00428529
-0.026151
-0.0548704
-0.0809281
-0.103474
-0.121773
-0.13525
-0.14351
-0.146392
-0.143417
-0.134802
-0.121095
-0.103843
-0.0840243
-0.0639219
0.094693
0.1239
0.149739
0.170896
0.185974
0.193924
0.194565
0.18814
0.176623
0.161059
0.142495
0.121858
0.0998588
0.0769451
0.0533074
0.0289429
0.00377588
-0.0222236
-0.0489247
-0.0759285
-0.102509
-0.127608
-0.149926
-0.168031
-0.180561
-0.185399
-0.181739
-0.16946
-0.150144
-0.124956
-0.0971209
0.0939381
0.120943
0.143733
0.160754
0.171013
0.173885
0.169909
0.160163
0.147339
0.132996
0.118425
0.104456
0.0913437
0.0787456
0.065813
0.0513735
0.034194
0.013245
-0.0120521
-0.0416105
-0.0745656
-0.109275
-0.143469
-0.174481
-0.199591
-0.214952
-0.218697
-0.210032
-0.190529
-0.161582
-0.127278
0.0761087
0.0964847
0.112859
0.123865
0.129123
0.128586
0.123356
0.115021
0.106353
0.0989476
0.0938782
0.0914836
0.0912807
0.0919926
0.0917264
0.0882618
0.0794224
0.0634458
0.0393176
0.00704766
-0.0321993
-0.0761302
-0.121547
-0.164667
-0.201605
-0.227102
-0.238451
-0.234329
-0.216243
-0.185789
-0.147622
0.048929
0.0606121
0.069195
0.0737877
0.0746336
0.0722441
0.0680458
0.0637875
0.0618335
0.0634672
0.0692788
0.0789732
0.0913297
0.104291
0.115207
0.121187
0.119524
0.10811
0.0857958
0.0526803
0.0102202
-0.0388294
-0.0906889
-0.140937
-0.185047
-0.217075
-0.23391
-0.233977
-0.218636
-0.189569
-0.151486
0.0212339
0.0247356
0.0262844
0.0255646
0.0232776
0.020311
0.0181476
0.0183935
0.0227342
0.0319818
0.0462005
0.0645696
0.0853939
0.106237
0.124192
0.136241
0.139665
0.132434
0.113534
0.0832089
0.0430348
-0.00417264
-0.0546429
-0.104034
-0.147941
-0.180727
-0.199442
-0.202587
-0.191269
-0.167052
-0.13405
2.68339e-05
-0.00218206
-0.00528927
-0.00911202
-0.012758
-0.0152348
-0.0152528
-0.0115723
-0.0032452
0.0100668
0.0280312
0.0495748
0.0729344
0.0958069
0.115598
0.129733
0.135985
0.132778
0.119421
0.096273
0.0647564
0.0272519
-0.0131522
-0.0529768
-0.0887458
-0.116162
-0.13299
-0.138119
-0.132266
-0.116636
-0.0940764
-0.0112777
-0.015872
-0.0205508
-0.0248197
-0.0278665
-0.0288628
-0.026901
-0.021237
-0.0115762
0.00203556
0.0190668
0.0384971
0.0588918
0.0785377
0.0956325
0.108496
0.11577
0.11659
0.110692
0.0984654
0.0809127
0.059541
0.0361907
0.0128376
-0.0086146
-0.0260329
-0.0383127
-0.0449443
-0.0461291
-0.0424882
-0.0350565
-0.013134
-0.0170972
-0.0205526
-0.0229056
-0.0236133
-0.0221974
-0.0182353
-0.0115167
-0.00225793
0.00921786
0.0223477
0.0363819
0.050468
0.0637528
0.0754883
0.0851199
0.0923393
0.0970981
0.0995795
0.100128
0.0991576
0.097055
0.0941089
0.09046
0.0861161
0.0806252
0.0737772
0.0653956
0.055877
0.0453237
0.034798
-0.00886241
-0.0103529
-0.010867
-0.00987019
-0.00715537
-0.00265086
0.00357154
0.0112261
0.019722
0.0285362
0.0371521
0.045158
0.0523325
0.0587076
0.0645909
0.0705341
0.0772433
0.085447
0.0957359
0.108382
0.123201
0.139466
0.155943
0.170985
0.18276
0.188302
0.186149
0.175481
0.157291
0.132405
0.103937
-0.00301425
-0.00174055
0.000929582
0.00540548
0.0116115
0.0192823
0.0279271
0.0368582
0.0452106
0.0522975
0.0576337
0.0610681
0.0628727
0.0637758
0.0649187
0.0677307
0.0737283
0.0842674
0.100278
0.121994
0.148775
0.17903
0.210335
0.239633
0.263643
0.277395
0.278434
0.265431
0.239861
0.203122
0.160006
0.000226474
0.0031312
0.00780099
0.0145586
0.0231747
0.033205
0.0438728
0.054214
0.0631542
0.0698515
0.0737798
0.0748871
0.0736931
0.0713117
0.0693725
0.069842
0.0747558
0.0858974
0.104465
0.13074
0.163875
0.20182
0.241474
0.278955
0.310116
0.328784
0.331864
0.317674
0.287956
0.2444
0.192846
-0.00188131
0.000594129
0.00508716
0.0119543
0.0209616
0.0316725
0.0431768
0.0543634
0.0639818
0.0710378
0.0748813
0.0753857
0.0730622
0.0690914
0.0652417
0.0636772
0.0666683
0.07624
0.0938078
0.119813
0.153484
0.19275
0.234388
0.274311
0.308113
0.32928
0.334426
0.321646
0.292652
0.249084
0.197074
-0.0102456
-0.0105119
-0.00867846
-0.00419028
0.00283469
0.0121257
0.0227674
0.0335988
0.0431951
0.0504086
0.054398
0.0548281
0.0520073
0.0469442
0.0412879
0.0371542
0.0368481
0.0425168
0.0557794
0.0773546
0.1068
0.142393
0.181253
0.219589
0.253226
0.276038
0.284603
0.276856
0.254161
0.217775
0.173393
-0.02413
-0.0290439
-0.0319085
-0.0317996
-0.0286528
-0.022482
-0.0141433
-0.00481745
0.00384951
0.010532
0.0141402
0.0140452
0.0102436
0.00344966
-0.00492909
-0.0129314
-0.0182914
-0.0187646
-0.0124898
0.00164021
0.0236958
0.0525566
0.0859735
0.120765
0.153271
0.178218
0.192274
0.193207
0.181758
0.158541
0.128231
-0.0416456
-0.0522169
-0.060753
-0.0658189
-0.0671556
-0.0645098
-0.0587005
-0.0509882
-0.0433562
-0.0373852
-0.0344889
-0.0356533
-0.0412392
-0.0508498
-0.063318
-0.0768113
-0.0890535
-0.097632
-0.100354
-0.0956185
-0.0827229
-0.062062
-0.0351293
-0.00438698
0.0271051
0.0550911
0.0763359
0.088399
0.0912026
0.0845853
0.0718478
-0.0603224
-0.076431
-0.090224
-0.0996645
-0.104325
-0.103743
-0.0988068
-0.0910071
-0.0828508
-0.0763208
-0.0732757
-0.075136
-0.0826466
-0.0957026
-0.113304
-0.133638
-0.154286
-0.172531
-0.185724
-0.191666
-0.188952
-0.177217
-0.157199
-0.13067
-0.100146
-0.0689471
-0.0402611
-0.0167892
0.000504707
0.0106727
0.0155359
-0.0775616
-0.0980044
-0.115322
-0.126854
-0.132047
-0.130327
-0.122812
-0.111424
-0.0994127
-0.0893615
-0.0837326
-0.0844861
-0.092792
-0.108812
-0.131631
-0.15933
-0.189201
-0.218079
-0.24273
-0.260271
-0.268558
-0.266479
-0.254076
-0.232523
-0.2039
-0.170809
-0.136443
-0.103773
-0.0745937
-0.0505402
-0.0311605
-0.0909585
-0.113748
-0.132001
-0.142492
-0.144586
-0.137703
-0.123348
-0.104054
-0.0839932
-0.0665276
-0.0548714
-0.0516283
-0.0584449
-0.0757496
-0.102666
-0.137089
-0.175935
-0.215494
-0.251878
-0.281486
-0.301436
-0.30991
-0.306327
-0.291355
-0.266729
-0.234565
-0.198063
-0.160411
-0.124067
-0.0911817
-0.0624084
-0.0987272
-0.121569
-0.13803
-0.144454
-0.140157
-0.124647
-0.0999005
-0.069155
-0.0375485
-0.00930129
0.0115574
0.021734
0.0190756
0.00287278
-0.0260427
-0.0653871
-0.111703
-0.16076
-0.208049
-0.249301
-0.280963
-0.300589
-0.307049
-0.30057
-0.28258
-0.254878
-0.220609
-0.183057
-0.145101
-0.109199
-0.0767687
-0.0992363
-0.120018
-0.13259
-0.133132
-0.120955
-0.0956958
-0.0597643
-0.0169992
0.0267055
0.066413
0.0974172
0.115846
0.11911
0.106233
0.0779556
0.0366389
-0.0140405
-0.0695205
-0.124881
-0.175392
-0.217029
-0.246877
-0.263369
-0.266348
-0.256926
-0.236661
-0.208507
-0.175656
-0.141123
-0.107443
-0.0764495
-0.0921257
-0.109201
-0.116929
-0.111552
-0.0924196
-0.0593022
-0.01486
0.0367628
0.0893734
0.137695
0.176699
0.202222
0.21143
0.203152
0.177988
0.138203
0.0874251
0.0302162
-0.0284567
-0.0837655
-0.13153
-0.168622
-0.193206
-0.204815
-0.204229
-0.192746
-0.172974
-0.147797
-0.120079
-0.0922179
-0.0661275
-0.0775436
-0.0900009
-0.0932585
-0.0839361
-0.0614569
-0.0257379
0.0206966
0.0738773
0.128009
0.178092
0.219359
0.247842
0.260799
0.257022
0.236934
0.202494
0.156925
0.104324
0.0491916
-0.00405549
-0.0515426
-0.0902972
-0.118472
-0.135418
-0.14159
-0.137974
-0.12666
-0.110035
-0.0905181
-0.0701631
-0.0506536
-0.0575567
-0.0655409
-0.0658649
-0.0557747
-0.034845
-0.00295773
0.0376423
0.083737
0.130639
0.174258
0.210688
0.236663
0.249901
0.249351
0.235264
0.209125
0.173432
0.131398
0.086578
0.0424875
0.00224631
-0.031705
-0.0577835
-0.0753253
-0.0845233
-0.0860277
-0.0813205
-0.0721066
-0.0602126
-0.0471862
-0.0343027
-0.0358323
-0.040006
-0.0390842
-0.0310014
-0.0155783
0.00730788
0.0361108
0.0685796
0.101614
0.132455
0.158458
0.177408
0.187742
0.188711
0.180434
0.163842
0.140546
0.112634
0.0824373
0.0522766
0.0242354
-2.62368e-05
-0.0193897
-0.0333231
-0.0418444
-0.0452922
-0.0445215
-0.0405414
-0.034527
-0.0274761
-0.0201717
-0.102571
-0.124685
-0.139364
-0.142019
-0.131704
-0.107337
-0.0707184
-0.0248224
0.025434
0.0760469
0.123067
0.16308
0.193521
0.212916
0.220938
0.218333
0.206719
0.188323
0.165672
0.141273
0.117341
0.0955802
0.0770809
0.0622885
0.0510841
0.0426967
0.0363116
0.0310429
0.026305
0.0215489
0.0168105
-0.137431
-0.166475
-0.184284
-0.185543
-0.168811
-0.133042
-0.0809722
-0.0166393
0.0528297
0.121749
0.184604
0.236714
0.274675
0.296685
0.302598
0.293803
0.272905
0.243324
0.208829
0.173074
0.139197
0.109522
0.0854169
0.0672746
0.0546501
0.0461277
0.0403591
0.0359194
0.0317506
0.0270265
0.021697
-0.141233
-0.169165
-0.184146
-0.180715
-0.157595
-0.114283
-0.0537272
0.0189895
0.0957968
0.170192
0.236005
0.288138
0.323066
0.339179
0.336822
0.318103
0.286493
0.246323
0.202216
0.158526
0.118871
0.0857995
0.060635
0.0434946
0.033474
0.0285371
0.0267597
0.0262911
0.0255804
0.0235584
0.0200413
-0.107204
-0.125021
-0.130823
-0.119955
-0.0918737
-0.0464865
0.0127888
0.080736
0.149911
0.214175
0.267868
0.306517
0.327297
0.329309
0.313581
0.282828
0.241019
0.192848
0.14315
0.0963338
0.0559228
0.0242455
0.00230585
-0.0101689
-0.0145073
-0.013105
-0.0082446
-0.00209815
0.00341832
0.00704803
0.00834993
-0.0448683
-0.0457668
-0.0380573
-0.0186158
0.0121327
0.0536105
0.102584
0.154445
0.203753
0.245808
0.276475
0.292732
0.292999
0.277324
0.247327
0.205953
0.15709
0.105097
0.0543056
0.0085481
-0.029218
-0.0571491
-0.0746059
-0.0820894
-0.081039
-0.0736489
-0.0621724
-0.0487514
-0.0355641
-0.0239994
-0.0150006
0.0251943
0.0422968
0.0633738
0.0898674
0.120447
0.154034
0.187985
0.218875
0.243985
0.260602
0.266538
0.260454
0.242031
0.212044
0.172284
0.125362
0.0744433
0.0229262
-0.0258907
-0.0691182
-0.104518
-0.130654
-0.146959
-0.153698
-0.151851
-0.142633
-0.127765
-0.108996
-0.0886228
-0.0681752
-0.0493859
0.0835624
0.114273
0.144596
0.174325
0.201613
0.225219
0.24344
0.254365
0.258022
0.253714
0.241068
0.220143
0.191439
0.155899
0.114853
0.069931
0.0229855
-0.0240188
-0.0691232
-0.110478
-0.146438
-0.175635
-0.197064
-0.210118
-0.214636
-0.210036
-0.196999
-0.17654
-0.150938
-0.121913
-0.0922761
0.11527
0.151699
0.184554
0.212567
0.233922
0.247641
0.253146
0.250057
0.240545
0.225467
0.205683
0.181967
0.15492
0.124944
0.0922705
0.0570277
0.0193842
-0.0203268
-0.061497
-0.103143
-0.143873
-0.181927
-0.215307
-0.241954
-0.260001
-0.266469
-0.260657
-0.242638
-0.214569
-0.178423
-0.138257
0.116547
0.150223
0.178752
0.200505
0.214214
0.219519
0.216955
0.207458
0.194412
0.179554
0.164229
0.149177
0.134413
0.119237
0.102374
0.0822244
0.057216
0.0261495
-0.0114914
-0.0552748
-0.103707
-0.154266
-0.203628
-0.247997
-0.283575
-0.304859
-0.309702
-0.297226
-0.269391
-0.228456
-0.179647
0.0928106
0.117254
0.136479
0.149139
0.154819
0.153935
0.147952
0.138711
0.129859
0.123331
0.120297
0.120898
0.124161
0.12807
0.129837
0.126306
0.114471
0.0919837
0.0575959
0.0115269
-0.0443935
-0.106791
-0.171068
-0.231872
-0.283752
-0.319156
-0.334783
-0.329017
-0.303573
-0.260939
-0.207142
0.0558815
0.06826
0.0763717
0.0795465
0.0782427
0.0735769
0.0675989
0.0625666
0.061656
0.0664908
0.0776675
0.0945182
0.11508
0.136249
0.154147
0.164622
0.163851
0.148917
0.118301
0.0722695
0.0129979
-0.0555424
-0.127974
-0.198067
-0.25948
-0.30369
-0.326842
-0.326971
-0.305514
-0.265018
-0.211639
0.0190259
0.0203965
0.018884
0.0145808
0.00857447
0.00239435
-0.00174303
-0.00162886
0.00502576
0.0192727
0.0410539
0.0690343
0.100637
0.132261
0.159675
0.178549
0.185029
0.176284
0.150956
0.109484
0.0541757
-0.0109503
-0.0805702
-0.148605
-0.208928
-0.253518
-0.278737
-0.282747
-0.266662
-0.232817
-0.186618
-0.0075963
-0.0133286
-0.0205905
-0.0287004
-0.0363355
-0.041947
-0.0435637
-0.0394047
-0.028179
-0.00944864
0.0162291
0.0472258
0.0809325
0.113993
0.142679
0.163334
0.17285
0.169079
0.151153
0.119687
0.0767746
0.0258017
-0.028909
-0.0825531
-0.130384
-0.166414
-0.187984
-0.19383
-0.184677
-0.162321
-0.130513
-0.019499
-0.0273381
-0.0355934
-0.043312
-0.0493309
-0.0524546
-0.0512848
-0.0447195
-0.0323725
-0.014334
0.00858985
0.034893
0.0624942
0.0889491
0.111737
0.128567
0.137664
0.137984
0.12935
0.112488
0.0889302
0.0608345
0.0307279
0.00122595
-0.0252383
-0.0459376
-0.059755
-0.0663133
-0.0658778
-0.0594113
-0.0482642
-0.0180854
-0.0237237
-0.0288933
-0.0326878
-0.0343756
-0.0333554
-0.0289918
-0.0209736
-0.00964481
0.00449126
0.0205859
0.0375421
0.0541565
0.0692823
0.0819971
0.0917311
0.0983301
0.102048
0.103467
0.103348
0.102459
0.101395
0.100468
0.0996318
0.0985376
0.0960263
0.0914179
0.084077
0.0742495
0.0619809
0.0487127
-0.00886571
-0.00992989
-0.00975421
-0.00768803
-0.00351469
0.00271996
0.0108565
0.0204339
0.0305438
0.0403508
0.0490463
0.0560133
0.0609766
0.064113
0.0660976
0.0680573
0.0714233
0.0777033
0.0882007
0.103693
0.124179
0.148721
0.175464
0.201772
0.224595
0.238991
0.242562
0.233715
0.213199
0.182058
0.144463
0.00121236
0.00472391
0.0102122
0.0180237
0.0279541
0.0394383
0.0516337
0.0634305
0.0734767
0.0806387
0.0841061
0.0836103
0.079586
0.0732434
0.066521
0.0619016
0.0620985
0.0696509
0.0864807
0.113427
0.149926
0.193864
0.241693
0.288738
0.32981
0.356945
0.366369
0.355706
0.326114
0.279418
0.222
0.00621959
0.0122704
0.0209727
0.0324718
0.0463484
0.0617658
0.0774075
0.0917066
0.102946
0.109705
0.111058
0.106839
0.0978256
0.085793
0.0734241
0.064043
0.0611998
0.0681522
0.0873131
0.119684
0.164483
0.218981
0.278677
0.337695
0.389553
0.42445
0.4377
0.426366
0.391812
0.336265
0.267453
0.00272532
0.00809124
0.0166124
0.0284379
0.0431643
0.0599617
0.0772833
0.0933148
0.106024
0.113715
0.115233
0.110265
0.0995491
0.0849545
0.0693806
0.0564748
0.0501799
0.054167
0.0712285
0.102658
0.147831
0.204014
0.266536
0.329207
0.385134
0.42397
0.440564
0.431596
0.398358
0.343003
0.27359
-0.0098933
-0.00859428
-0.00389382
0.00460594
0.0167
0.0317919
0.0483111
0.0643648
0.077623
0.08613
0.0884208
0.0838495
0.0728373
0.0569926
0.0390419
0.0225739
0.0116008
0.00999431
0.0208671
0.0459344
0.0850572
0.136006
0.194588
0.25502
0.31071
0.351852
0.373155
0.371012
0.346319
0.300702
0.241576
-0.030039
-0.035439
-0.0373971
-0.0350332
-0.0282573
-0.0173113
-0.00368049
0.0107359
0.023262
0.0316706
0.0341229
0.0295323
0.0178547
0.00025974
-0.0208867
-0.0422297
-0.059823
-0.0696649
-0.0683063
-0.0534866
-0.0246251
0.0168884
0.0677447
0.12301
0.17681
0.22058
0.249042
0.258309
0.248584
0.220612
0.180411
-0.0548357
-0.0682251
-0.0780964
-0.0829012
-0.0822415
-0.0760041
-0.0656086
-0.0530251
-0.0414226
-0.0333904
-0.0312304
-0.0365436
-0.0498939
-0.0705802
-0.0966005
-0.12481
-0.151278
-0.171798
-0.182485
-0.18041
-0.164129
-0.134031
-0.0923777
-0.0430965
0.00878728
0.0561998
0.0938872
0.117646
0.126756
0.120891
0.104245
-0.0810085
-0.102132
-0.119257
-0.130041
-0.133821
-0.130226
-0.120753
-0.107645
-0.0948193
-0.0854265
-0.0823897
-0.0879223
-0.103136
-0.127756
-0.16004
-0.196901
-0.234249
-0.267494
-0.292153
-0.304499
-0.30214
-0.284426
-0.252576
-0.209555
-0.159612
-0.108442
-0.0613274
-0.0228324
0.00529762
0.0216482
0.0284965
-0.105376
-0.13259
-0.154584
-0.168178
-0.172506
-0.167089
-0.153721
-0.135194
-0.116499
-0.101619
-0.0943212
-0.0975755
-0.113094
-0.140988
-0.179655
-0.225892
-0.275244
-0.322534
-0.362511
-0.390536
-0.403221
-0.398901
-0.377834
-0.34215
-0.29547
-0.242421
-0.188354
-0.138177
-0.0946253
-0.0600726
-0.0339677
-0.125044
-0.155748
-0.17917
-0.191337
-0.191242
-0.178448
-0.155258
-0.12528
-0.0948367
-0.0690072
-0.0526146
-0.0495343
-0.0621536
-0.0909712
-0.134461
-0.189191
-0.250214
-0.31164
-0.367348
-0.411738
-0.440426
-0.450789
-0.442218
-0.416129
-0.375633
-0.324624
-0.268479
-0.21235
-0.159788
-0.113892
-0.0754674
-0.137713
-0.168957
-0.19026
-0.196998
-0.188072
-0.163199
-0.125312
-0.0789716
-0.0319087
0.00958472
0.0395339
0.0530859
0.0471312
0.0207578
-0.0245973
-0.0852838
-0.155874
-0.229797
-0.30011
-0.360318
-0.405136
-0.431076
-0.436761
-0.422969
-0.392342
-0.348278
-0.296044
-0.240846
-0.186772
-0.137362
-0.0943234
-0.140816
-0.169816
-0.186291
-0.185287
-0.165669
-0.127345
-0.0738178
-0.0104659
0.0538693
0.111886
0.15665
0.18249
0.185665
0.164864
0.121366
0.0588831
-0.0169014
-0.0990065
-0.17997
-0.252703
-0.311284
-0.351581
-0.371593
-0.371519
-0.353506
-0.320534
-0.277536
-0.229494
-0.180673
-0.134733
-0.0938477
-0.133443
-0.157998
-0.168413
-0.159716
-0.130807
-0.0817532
-0.0163814
0.0595027
0.136603
0.207132
0.263694
0.300192
0.31252
0.299067
0.260866
0.201449
0.126373
0.0425578
-0.0425256
-0.121693
-0.188831
-0.239504
-0.271304
-0.28394
-0.279014
-0.259056
-0.228401
-0.191516
-0.152461
-0.114713
-0.080509
-0.114863
-0.133616
-0.138415
-0.12477
-0.0916863
-0.0394001
0.0284972
0.106433
0.185678
0.258847
0.318919
0.360069
0.378311
0.371951
0.341732
0.290695
0.223754
0.147104
0.06749
-0.00853514
-0.0753136
-0.128624
-0.166002
-0.18683
-0.192165
-0.183977
-0.165753
-0.141162
-0.113664
-0.086242
-0.0608557
-0.0875372
-0.100351
-0.101418
-0.0870867
-0.0565832
-0.00998182
0.0494829
0.117271
0.186265
0.250382
0.303828
0.341777
0.36088
0.35964
0.338515
0.299816
0.247371
0.186049
0.1212
0.0580578
0.00119877
-0.0458898
-0.0810661
-0.103612
-0.11411
-0.113921
-0.10554
-0.0916142
-0.0747768
-0.0572958
-0.0406445
-0.056482
-0.0638589
-0.0632117
-0.0518699
-0.0293892
0.00430969
0.046946
0.0952549
0.14447
0.190425
0.229139
0.257286
0.272533
0.273796
0.261306
0.236539
0.201995
0.160886
0.116764
0.0731313
0.0330808
-0.000984348
-0.0275262
-0.0459296
-0.0564258
-0.0597949
-0.057519
-0.0512009
-0.0425598
-0.0330882
-0.0236693
-0.158763
-0.195174
-0.221078
-0.230121
-0.220677
-0.191177
-0.14376
-0.0824321
-0.0141716
0.0554664
0.12097
0.177534
0.221501
0.250705
0.264558
0.26396
0.251021
0.228707
0.200419
0.169555
0.139131
0.111488
0.0881388
0.0697239
0.0561131
0.0463156
0.0392278
0.0336992
0.0288606
0.0239501
0.0189585
-0.213769
-0.261903
-0.294328
-0.303424
-0.286813
-0.243028
-0.175305
-0.0890348
0.00564502
0.100839
0.18884
0.263036
0.318548
0.35268
0.365019
0.357278
0.332865
0.296339
0.252776
0.207137
0.163709
0.125703
0.0950406
0.072328
0.0570276
0.0473222
0.0413852
0.037366
0.0337397
0.0293488
0.0240901
-0.226113
-0.274599
-0.304842
-0.308824
-0.284236
-0.230303
-0.150503
-0.0516968
0.0544922
0.158934
0.25289
0.32904
0.382222
0.409901
0.412264
0.391968
0.353598
0.302973
0.246377
0.18978
0.138186
0.0951698
0.062651
0.0409014
0.0287922
0.0236865
0.0229713
0.0242013
0.0251951
0.0244564
0.0217348
-0.185798
-0.221945
-0.240764
-0.235067
-0.203473
-0.1456
-0.0657643
0.028901
0.127377
0.220827
0.301002
0.361254
0.397221
0.407246
0.392401
0.356183
0.30391
0.241987
0.177092
0.115378
0.0618238
0.0197834
-0.00920874
-0.0253868
-0.0304557
-0.0275779
-0.0198872
-0.0103219
-0.00152875
0.00473078
0.007949
-0.105817
-0.120075
-0.121006
-0.103405
-0.0671664
-0.012672
0.0557313
0.131598
0.206349
0.272855
0.324702
0.35702
0.367002
0.354209
0.320524
0.269828
0.207444
0.139472
0.0720618
0.0107242
-0.0402242
-0.078025
-0.101625
-0.111598
-0.109861
-0.0994317
-0.0834713
-0.0650008
-0.0469556
-0.0312711
-0.018989
-0.0144797
-0.0051944
0.011772
0.0393695
0.0764848
0.122197
0.172639
0.222828
0.267612
0.302328
0.322996
0.326872
0.312769
0.281225
0.234415
0.175884
0.110134
0.0421352
-0.0232054
-0.0815323
-0.129436
-0.164708
-0.186455
-0.195042
-0.191908
-0.178977
-0.158788
-0.13401
-0.107636
-0.0817559
-0.0582756
0.0625831
0.0898894
0.119333
0.151675
0.185073
0.218483
0.249042
0.273711
0.290891
0.2985
0.294912
0.279216
0.251335
0.212097
0.163171
0.106925
0.0462522
-0.0156682
-0.0756248
-0.130611
-0.178033
-0.215865
-0.242773
-0.258151
-0.262119
-0.254494
-0.236527
-0.210111
-0.178075
-0.142695
-0.107069
0.105381
0.140431
0.17336
0.203499
0.228996
0.249194
0.262589
0.268167
0.267181
0.259632
0.24557
0.225108
0.198403
0.165688
0.127302
0.0837461
0.0357805
-0.015514
-0.0687016
-0.12197
-0.173171
-0.219924
-0.259793
-0.290486
-0.310093
-0.31558
-0.306444
-0.283535
-0.249354
-0.206425
-0.15923
0.10944
0.141369
0.168772
0.190465
0.205255
0.21328
0.214511
0.209721
0.201901
0.192341
0.181879
0.170744
0.158481
0.144017
0.125834
0.102244
0.0717608
0.0334432
-0.0128126
-0.0660346
-0.124103
-0.183844
-0.241308
-0.292153
-0.332157
-0.355247
-0.359069
-0.343391
-0.310301
-0.262596
-0.206077
0.0825192
0.103318
0.118969
0.128576
0.132001
0.130318
0.124841
0.11762
0.112228
0.11042
0.113016
0.119674
0.128825
0.137823
0.143268
0.141485
0.129107
0.103634
0.0639019
0.0104607
-0.0543034
-0.126297
-0.200105
-0.269544
-0.328399
-0.368127
-0.384888
-0.377589
-0.347893
-0.298818
-0.237069
0.0405574
0.0471882
0.0493082
0.0467744
0.0405076
0.0323769
0.0246346
0.0199809
0.0216593
0.0312517
0.0490681
0.0739229
0.103139
0.132781
0.158099
0.174141
0.176443
0.161693
0.128271
0.0766633
0.00957242
-0.0682672
-0.150551
-0.230068
-0.299541
-0.349258
-0.374674
-0.374265
-0.34932
-0.302902
-0.241855
0.000808957
-0.00465889
-0.0134048
-0.0247658
-0.037101
-0.0481514
-0.0552773
-0.0557554
-0.0472007
-0.0285582
-0.000155086
0.0361446
0.0770176
0.117977
0.153872
0.179517
0.190379
0.183206
0.15652
0.110967
0.0493647
-0.0235346
-0.101525
-0.17761
-0.244799
-0.294008
-0.321003
-0.324371
-0.305086
-0.265965
-0.212997
-0.0242819
-0.0362813
-0.0502492
-0.0649886
-0.0786676
-0.0891581
-0.0940157
-0.0910218
-0.078822
-0.0569922
-0.0263451
0.011013
0.0518225
0.0919827
0.127019
0.152631
0.165238
0.162462
0.143462
0.10913
0.0620428
0.00619506
-0.0534305
-0.111407
-0.162467
-0.200026
-0.221176
-0.225118
-0.212559
-0.185723
-0.148696
-0.0302458
-0.0421993
-0.0549679
-0.0672459
-0.0775272
-0.0842863
-0.0857636
-0.0806088
-0.0684394
-0.0494178
-0.024586
0.004184
0.0343695
0.0630808
0.0874246
0.104877
0.113605
0.1127
0.102283
0.0834875
0.0582972
0.029271
-0.000770319
-0.0290763
-0.0532458
-0.0706924
-0.0806027
-0.0831514
-0.0787886
-0.068825
-0.0545986
-0.020424
-0.027124
-0.0336261
-0.0389
-0.0421021
-0.0425952
-0.0396057
-0.0328268
-0.0227027
-0.00990279
0.00449934
0.0191737
0.0327365
0.0439744
0.0520645
0.0567263
0.0582733
0.0575556
0.0557982
0.0543468
0.0543851
0.0566725
0.0613787
0.0680141
0.0755384
0.0817764
0.0850874
0.0841791
0.0788637
0.0689325
0.0562392
-0.00309267
-0.00220628
-0.000130218
0.00368182
0.00933387
0.0165431
0.0250247
0.0340484
0.0424768
0.0491816
0.0531078
0.0535067
0.0501566
0.0435258
0.0348471
0.0260543
0.0195707
0.0179721
0.0235657
0.0379071
0.0614057
0.093073
0.130505
0.170069
0.207389
0.235655
0.250865
0.250661
0.235114
0.2051
0.165581
0.012433
0.0200481
0.0298833
0.042014
0.0559655
0.0707371
0.0851266
0.0975231
0.106188
0.109545
0.106467
0.0965862
0.0805332
0.0600648
0.038026
0.0181182
0.00447922
0.00111941
0.011287
0.0367941
0.0775219
0.131168
0.193338
0.257933
0.317937
0.362843
0.386736
0.386377
0.362045
0.315454
0.254071
0.0190987
0.0301203
0.0443516
0.0615936
0.0810941
0.101484
0.120933
0.137203
0.148024
0.151376
0.14591
0.131311
0.108579
0.0801498
0.0498014
0.0223261
0.00298184
-0.00321896
0.00771067
0.0379223
0.0871535
0.152452
0.228324
0.307226
0.380547
0.435526
0.464981
0.465008
0.435967
0.379981
0.306024
0.0137744
0.0237338
0.0376745
0.055418
0.0762546
0.0988238
0.121007
0.140221
0.153738
0.159128
0.154683
0.139837
0.115482
0.0841267
0.0497969
0.0176918
-0.00641347
-0.0169428
-0.00937248
0.0188825
0.0678245
0.134553
0.213402
0.296461
0.374606
0.434389
0.467997
0.471031
0.443728
0.388093
0.313444
-0.00287493
0.00179111
0.0108526
0.0244585
0.0421804
0.0629606
0.0846868
0.104663
0.11976
0.127198
0.124844
0.111671
0.0881345
0.0563725
0.0201606
-0.0154047
-0.0444816
-0.061256
-0.060812
-0.0400431
0.00165417
0.0619988
0.135909
0.215967
0.293404
0.355394
0.393983
0.404351
0.386352
0.341374
0.277982
-0.0277391
-0.0313203
-0.0304028
-0.0242493
-0.0128937
0.00305413
0.0216526
0.0401973
0.0551605
0.063438
0.0624382
0.0505827
0.0277312
-0.00455123
-0.0429772
-0.0827898
-0.118287
-0.143558
-0.153337
-0.143909
-0.113848
-0.0644594
0.000215504
0.0737643
0.148282
0.212391
0.258257
0.280625
0.278705
0.252889
0.210158
-0.0568892
-0.0698902
-0.0783045
-0.0806151
-0.0764629
-0.0660268
-0.0510836
-0.0344128
-0.0200701
-0.0115535
-0.0119777
-0.0235229
-0.046956
-0.0812987
-0.123746
-0.169859
-0.214036
-0.250212
-0.272695
-0.277064
-0.26094
-0.224504
-0.170592
-0.104442
-0.0329462
0.0342474
0.08949
0.127039
0.145242
0.143301
0.12616
-0.0867881
-0.108618
-0.125322
-0.134474
-0.135393
-0.127965
-0.113973
-0.0965087
-0.0804423
-0.0698809
-0.0686257
-0.0795461
-0.10404
-0.141639
-0.189878
-0.244444
-0.299627
-0.349005
-0.386284
-0.406208
-0.405373
-0.382816
-0.340198
-0.281648
-0.213142
-0.142748
-0.0779766
-0.0250905
0.0132774
0.0351388
0.0433279
-0.114623
-0.143312
-0.165446
-0.177638
-0.178963
-0.169221
-0.150459
-0.126422
-0.103191
-0.0858124
-0.0790334
-0.0865747
-0.110513
-0.150827
-0.205231
-0.269314
-0.337001
-0.401266
-0.455007
-0.492001
-0.507769
-0.500238
-0.469999
-0.420233
-0.356177
-0.284689
-0.213196
-0.148429
-0.0939891
-0.052898
-0.0241988
-0.138033
-0.170795
-0.19454
-0.204937
-0.200887
-0.182287
-0.151719
-0.113894
-0.0764641
-0.0457415
-0.0276937
-0.027081
-0.0467531
-0.0871354
-0.146038
-0.218809
-0.298844
-0.378344
-0.449272
-0.504359
-0.538044
-0.547196
-0.531439
-0.493138
-0.436923
-0.368815
-0.296132
-0.225908
-0.162559
-0.109874
-0.0683572
-0.154937
-0.18879
-0.210403
-0.214627
-0.20023
-0.167329
-0.119198
-0.06168
-0.0041392
0.0456728
0.0804287
0.0942173
0.0833403
0.0468819
-0.0130859
-0.0916814
-0.181777
-0.274831
-0.361904
-0.434749
-0.486804
-0.513969
-0.514991
-0.491479
-0.447485
-0.388428
-0.321382
-0.253409
-0.189467
-0.133796
-0.0878706
-0.16205
-0.194155
-0.210886
-0.206595
-0.179965
-0.131356
-0.0646777
0.0132672
0.09172
0.161715
0.214776
0.244005
0.244946
0.216191
0.159592
0.080067
-0.0150111
-0.11668
-0.215456
-0.30245
-0.370401
-0.414468
-0.432655
-0.425853
-0.397462
-0.352333
-0.29703
-0.238276
-0.18119
-0.130103
-0.0870092
-0.157619
-0.185701
-0.196387
-0.1839
-0.146915
-0.0859554
-0.00530993
0.0877363
0.181794
0.267295
0.335183
0.378032
0.390919
0.37204
0.322914
0.248184
0.155008
0.0522036
-0.0508021
-0.145062
-0.223115
-0.279759
-0.312476
-0.321502
-0.309493
-0.280623
-0.240641
-0.195551
-0.150214
-0.108723
-0.0731693
-0.139328
-0.161732
-0.166847
-0.149426
-0.108219
-0.043909
0.0394888
0.135009
0.231874
0.320983
0.39371
0.44293
0.46383
0.454465
0.415947
0.35226
0.269713
0.176171
0.0801214
-0.0102969
-0.0881861
-0.148577
-0.188816
-0.208647
-0.209939
-0.196001
-0.171459
-0.141223
-0.109455
-0.079663
-0.0537073
-0.10901
-0.125215
-0.126745
-0.109284
-0.0718536
-0.0148386
0.0580898
0.141271
0.225848
0.30429
0.369447
0.415384
0.438028
0.43563
0.408897
0.360859
0.296425
0.221781
0.143653
0.068546
0.0020448
-0.0517295
-0.0904287
-0.113552
-0.122249
-0.118857
-0.1067
-0.0893565
-0.0699837
-0.0512459
-0.0345565
-0.0723968
-0.0824036
-0.0822364
-0.0687613
-0.0413739
-0.000136633
0.0523172
0.111896
0.17261
0.229258
0.276888
0.311376
0.329857
0.331043
0.315312
0.284609
0.242156
0.192052
0.138785
0.0867263
0.0396682
0.000467455
-0.0291659
-0.0487247
-0.0587819
-0.0607207
-0.0565644
-0.0485162
-0.0386192
-0.0286237
-0.0193779
-0.214559
-0.266101
-0.3046
-0.322085
-0.316236
-0.284839
-0.230388
-0.15762
-0.0752905
0.00975255
0.090673
0.161465
0.21751
0.255997
0.27605
0.278621
0.26616
0.242185
0.210768
0.176012
0.141579
0.110337
0.0841591
0.0638697
0.0493572
0.039516
0.0330365
0.0285053
0.0248325
0.0210491
0.0170822
-0.290817
-0.359416
-0.408512
-0.428296
-0.415425
-0.36776
-0.289077
-0.185736
-0.0705493
0.0466915
0.156363
0.250145
0.321823
0.367846
0.387476
0.382608
0.357244
0.316836
0.267514
0.215308
0.165464
0.121949
0.0871733
0.0619516
0.0457049