# vtk DataFile Version 2.0
Func
ASCII
DATASET RECTILINEAR_GRID
DIMENSIONS 31 31 31
X_COORDINATES 31 double
-9.67742
-9.03226
-8.3871
-7.74194
-7.09677
-6.45161
-5.80645
-5.16129
-4.51613
-3.87097
-3.22581
-2.58065
-1.93548
-1.29032
-0.645161
0
0.645161
1.29032
1.93548
2.58065
3.22581
3.87097
4.51613
5.16129
5.80645
6.45161
7.09677
7.74194
8.3871
9.03226
9.67742
Y_COORDINATES 31 double
-9.67742
-9.03226
-8.3871
-7.74194
-7.09677
-6.45161
-5.80645
-5.16129
-4.51613
-3.87097
-3.22581
-2.58065
-1.93548
-1.29032
-0.645161
0
0.645161
1.29032
1.93548
2.58065
3.22581
3.87097
4.51613
5.16129
5.80645
6.45161
7.09677
7.74194
8.3871
9.03226
9.67742
Z_COORDINATES 31 double
-9.67742
-9.03226
-8.3871
-7.74194
-7.09677
-6.45161
-5.80645
-5.16129
-4.51613
-3.87097
-3.22581
-2.58065
-1.93548
-1.29032
-0.645161
0
0.645161
1.29032
1.93548
2.58065
3.22581
3.87097
4.51613
5.16129
5.80645
6.45161
7.09677
7.74194
8.3871
9.03226
9.67742
POINT_DATA 29791
SCALARS data double 1
LOOKUP_TABLE default
0.0966424
0.125927
0.153266
0.175647
0.191654
0.199432
0.198688
0.189628
0.174022
0.153124
0.128566
0.102207
0.076012
0.0518916
0.0315739
0.0164763
0.0076079
0.00547882
0.0100444
0.0206762
0.0361916
0.0549329
0.0749207
0.0940212
0.110181
0.120776
0.124541
0.120764
0.11034
0.0940506
0.0743176
0.123626
0.161441
0.196606
0.225829
0.247068
0.258068
0.258383
0.247953
0.228988
0.20294
0.171755
0.137713
0.103284
0.0709519
0.0430455
0.021572
0.00807117
0.00347047
0.0079758
0.0209906
0.041123
0.0662607
0.0937581
0.120665
0.14405
0.160021
0.166798
0.163238
0.15025
0.128942
0.102279
0.11976
0.156917
0.191959
0.221797
0.244416
0.257739
0.26081
0.253448
0.237456
0.213928
0.184472
0.151111
0.116176
0.0821632
0.0515793
0.0267567
0.00967556
0.00176151
0.00370803
0.0153197
0.0354522
0.0620476
0.0923024
0.122916
0.150463
0.170305
0.180013
0.178263
0.165673
0.143313
0.114438
0.0815928
0.108292
0.134685
0.158582
0.17863
0.193064
0.200962
0.201707
0.195833
0.183474
0.165199
0.14203
0.115444
0.0873169
0.0598358
0.0353341
0.0160906
0.00407568
0.000693783
0.00653082
0.0211918
0.0432443
0.0703235
0.0993413
0.126867
0.148142
0.160367
0.161673
0.152422
0.133274
0.107384
0.0223113
0.0321896
0.0444799
0.0584067
0.0735688
0.0889604
0.103564
0.116211
0.12565
0.130638
0.130233
0.12395
0.111923
0.0949797
0.0746389
0.0529983
0.0325192
0.0157274
0.00487264
0.00156902
0.00650974
0.0192903
0.0384166
0.0614405
0.0853083
0.105587
0.11926
0.124079
0.119903
0.106799
0.0874663
-0.0365397
-0.0432849
-0.0447348
-0.0402821
-0.0293797
-0.0122691
0.00993837
0.0354772
0.061293
0.0847364
0.103307
0.114977
0.118488
0.113567
0.101016
0.0826494
0.0610705
0.0393303
0.0205093
0.0072563
0.00138191
0.00356354
0.0132504
0.0287243
0.0474062
0.0653
0.0792542
0.0866937
0.0869903
0.0796194
0.0668217
-0.0776906
-0.0955867
-0.106088
-0.107385
-0.0982887
-0.0784768
-0.0491801
-0.0126863
0.026597
0.0649274
0.0986022
0.124405
0.140016
0.144334
0.137632
0.121532
0.0987743
0.0728413
0.0474747
0.0261324
0.0114875
0.00504142
0.00695132
0.0160341
0.0300458
0.0452507
0.058388
0.0666373
0.069031
0.0646389
0.0553555
-0.0914482
-0.112495
-0.125232
-0.127189
-0.116977
-0.0940337
-0.0597128
-0.0166343
0.0302027
0.0765226
0.118043
0.150987
0.172549
0.181267
0.177211
0.161971
0.138414
0.110287
0.0816904
0.0564898
0.0377574
0.0273404
0.0256547
0.0316685
0.0431818
0.056361
0.0678304
0.0746349
0.0757111
0.0700353
0.0594754
-0.0807618
-0.0981103
-0.107487
-0.106294
-0.0933311
-0.0680803
-0.0319482
0.012371
0.0600697
0.106941
0.148776
0.181879
0.203531
0.212355
0.208501
0.193632
0.170669
0.143393
0.115903
0.0920163
0.0747055
0.0656678
0.0651273
0.0718356
0.0833722
0.0954973
0.104752
0.108179
0.104875
0.094038
0.0778228
-0.057113
-0.067571
-0.0713164
-0.0660044
-0.0508078
-0.0253751
0.00895046
0.0496869
0.0927802
0.134559
0.171373
0.200061
0.21836
0.22524
0.221057
0.207525
0.187474
0.164453
0.142224
0.124176
0.112803
0.109304
0.113434
0.123528
0.136841
0.148635
0.155455
0.154496
0.145198
0.127194
0.103107
-0.0352733
-0.0401067
-0.0398502
-0.0325328
-0.0176334
0.00508933
0.03452
0.0686174
0.104286
0.138605
0.168674
0.192006
0.206875
0.21259
0.20963
0.199609
0.185053
0.169051
0.154788
0.145018
0.141598
0.145146
0.154933
0.168942
0.184219
0.195731
0.200185
0.195063
0.180212
0.15573
0.124692
-0.0268464
-0.030625
-0.0307395
-0.0254653
-0.0143369
0.00297289
0.0257211
0.0524274
0.0808069
0.108636
0.13366
0.15391
0.167996
0.175343
0.176312
0.172181
0.164975
0.157163
0.151267
0.149403
0.152882
0.161917
0.17554
0.191674
0.207466
0.218036
0.220443
0.212552
0.19454
0.166825
0.132691
-0.0357761
-0.0439179
-0.0492541
-0.0500523
-0.0456044
-0.0352779
-0.0193686
0.00119114
0.0245587
0.0489637
0.072498
0.0933842
0.110231
0.122261
0.129443
0.132516
0.132868
0.132317
0.132787
0.135927
0.142762
0.153442
0.167149
0.182148
0.196061
0.204707
0.20565
0.197174
0.179599
0.153402
0.121691
-0.0574962
-0.0736608
-0.0872374
-0.0962578
-0.0995753
-0.0961268
-0.0857915
-0.069084
-0.0478067
-0.0235792
0.00170987
0.0261474
0.0480458
0.0661818
0.0799644
0.089506
0.0955698
0.0994136
0.102544
0.106396
0.112028
0.119874
0.129627
0.140234
0.150088
0.156135
0.156516
0.149881
0.136474
0.116543
0.0926239
-0.0815485
-0.105947
-0.127529
-0.144023
-0.153847
-0.155553
-0.148742
-0.13371
-0.112487
-0.0867695
-0.0586367
-0.0303045
-0.00386517
0.0189746
0.0370967
0.0500902
0.0582494
0.0624757
0.0640856
0.0645411
0.0651663
0.0668929
0.0701044
0.0745668
0.0795256
0.083207
0.0842696
0.0816119
0.0752046
0.0648678
0.0522707
-0.0963132
-0.125526
-0.151587
-0.172071
-0.185177
-0.189291
-0.183947
-0.169436
-0.148053
-0.121652
-0.0925097
-0.0630794
-0.0357174
-0.0124085
0.00545556
0.0172198
0.0229902
0.0235681
0.0202886
0.0147853
0.00871669
0.003505
0.000145261
-0.000913269
0.000253299
0.00296464
0.00621313
0.00897837
0.0108538
0.01117
0.0106317
-0.0937084
-0.121933
-0.14689
-0.166326
-0.17857
-0.182178
-0.176844
-0.16302
-0.143101
-0.119012
-0.0930501
-0.0676337
-0.0450421
-0.0271503
-0.0152207
-0.00977046
-0.0105522
-0.0166182
-0.0264746
-0.0383001
-0.0502087
-0.0605083
-0.0679003
-0.0716148
-0.0714292
-0.0673995
-0.0604556
-0.0517055
-0.0419376
-0.0322203
-0.0227036
-0.0720642
-0.0931885
-0.111317
-0.124768
-0.132363
-0.133162
-0.127211
-0.115206
-0.0993605
-0.0814906
-0.0636296
-0.0478036
-0.0358004
-0.0289508
-0.027968
-0.0328629
-0.0429601
-0.0569883
-0.0732462
-0.0898155
-0.104807
-0.116596
-0.123999
-0.126384
-0.12368
-0.115904
-0.104159
-0.0897617
-0.0738067
-0.0575684
-0.0417881
-0.0363209
-0.0459635
-0.0532445
-0.05738
-0.0579301
-0.0546948
-0.0481631
-0.0392812
-0.0298157
-0.0212779
-0.0151815
-0.0128555
-0.0152699
-0.0228879
-0.0355813
-0.052619
-0.0727382
-0.0942771
-0.115363
-0.134124
-0.148907
-0.158472
-0.162116
-0.159726
-0.151745
-0.138644
-0.121853
-0.102939
-0.0831861
-0.0638597
-0.0459767
0.00414972
0.00732754
0.0120598
0.0180969
0.0250841
0.0324293
0.0392166
0.0443182
0.0465648
0.0448671
0.0383615
0.0265438
0.00937675
-0.0126443
-0.0384913
-0.0666703
-0.0953498
-0.122538
-0.146287
-0.164903
-0.177127
-0.182276
-0.180301
-0.171767
-0.157766
-0.139448
-0.118572
-0.0968907
-0.0757684
-0.0563013
-0.0395232
0.0389577
0.0530149
0.0678967
0.0824254
0.0956046
0.106194
0.112976
0.114758
0.110955
0.100906
0.0843504
0.0615118
0.0331405
0.00050642
-0.0346701
-0.0703461
-0.104325
-0.134457
-0.158855
-0.176078
-0.185284
-0.186308
-0.179666
-0.166479
-0.148331
-0.126934
-0.104204
-0.0819172
-0.0614452
-0.0436508
-0.0294649
0.0599744
0.0804485
0.10129
0.120717
0.137404
0.149761
0.156481
0.156438
0.14949
0.135302
0.114023
0.0863123
0.0533442
0.0167534
-0.0214715
-0.05914
-0.0940342
-0.124106
-0.147668
-0.163552
-0.171219
-0.170794
-0.163041
-0.149253
-0.131115
-0.110468
-0.0890768
-0.0685189
-0.0501326
-0.034582
-0.0227376
0.0633931
0.084659
0.106172
0.126005
0.142881
0.155241
0.161929
0.162032
0.155636
0.142588
0.123167
0.0980879
0.0684774
0.0358142
0.0018274
-0.0316336
-0.0627385
-0.0898292
-0.111559
-0.127011
-0.135758
-0.137885
-0.133956
-0.124933
-0.112077
-0.0967571
-0.0802255
-0.063617
-0.048219
-0.0345886
-0.0237099
0.0502082
0.0669632
0.0841115
0.100047
0.113889
0.124469
0.131016
0.132952
0.130403
0.123257
0.111671
0.0960525
0.0770444
0.055484
0.0323501
0.00869828
-0.014405
-0.0359537
-0.0550675
-0.0710446
-0.083391
-0.0918289
-0.096305
-0.0969723
-0.0941797
-0.0882521
-0.0795981
-0.0687197
-0.0568255
-0.0444634
-0.0329528
0.0252715
0.0337314
0.042838
0.0516687
0.0599723
0.0672321
0.0732276
0.0778088
0.081021
0.0827143
0.0827591
0.0810232
0.0773746
0.0716881
0.0638663
0.0538685
0.0417459
0.0276748
0.0119839
-0.0048265
-0.0220793
-0.0389355
-0.0544613
-0.0676993
-0.0777832
-0.0836215
-0.0845899
-0.0804529
-0.0722982
-0.0607191
-0.0475512
-0.00456793
-0.00602872
-0.00664301
-0.0064734
-0.00506294
-0.00216747
0.00261278
0.00959001
0.0186988
0.0297387
0.0422536
0.0555089
0.0685184
0.0801059
0.0890082
0.0940069
0.0940704
0.0884971
0.0770377
0.0599872
0.0382217
0.0131704
-0.0133132
-0.0391192
-0.0621267
-0.079767
-0.0903769
-0.0930024
-0.0885546
-0.0776699
-0.0627703
-0.0318292
-0.0424024
-0.0520919
-0.0601322
-0.065451
-0.067111
-0.0641574
-0.055861
-0.0423668
-0.023891
-0.00114577
0.0246422
0.0517763
0.0781997
0.101668
0.119965
0.131137
0.133727
0.126974
0.110966
0.0867025
0.0560569
0.0215955
-0.0136644
-0.0466073
-0.0734857
-0.0918118
-0.100067
-0.0989412
-0.0890646
-0.0733136
-0.0509958
-0.0680365
-0.0843082
-0.0984324
-0.108938
-0.114403
-0.113501
-0.105217
-0.0897243
-0.0672167
-0.0385336
-0.00517737
0.0307419
0.0666442
0.0996929
0.127063
0.146225
0.155236
0.152982
0.139372
0.115413
0.0831628
0.0455312
0.00599613
-0.0318083
-0.0635165
-0.0861971
-0.0980175
-0.0994397
-0.0910204
-0.0758918
-0.0580498
-0.0775525
-0.0964005
-0.113037
-0.125886
-0.133413
-0.134142
-0.126989
-0.112131
-0.0897183
-0.0605749
-0.0262074
0.0112495
0.0491727
0.0846671
0.114836
0.137067
0.149323
0.150391
0.14007
0.11925
0.0898695
0.05472
0.0171697
-0.01924
-0.0502476
-0.0729617
-0.085621
-0.0884489
-0.0818967
-0.0689594
-0.0526315
-0.0704529
-0.0877779
-0.103191
-0.11533
-0.122754
-0.124274
-0.118914
-0.106827
-0.0881249
-0.0634951
-0.0342062
-0.00206221
0.0307189
0.0616857
0.0883811
0.108582
0.120541
0.123198
0.116333
0.100633
0.0776573
0.0496763
0.0194474
-0.0101249
-0.0355481
-0.0544837
-0.0653419
-0.0683046
-0.0636665
-0.0539835
-0.0386309
-0.0517289
-0.0644944
-0.0758887
-0.0849517
-0.0905751
-0.0919643
-0.088493
-0.0802653
-0.067371
-0.0502958
-0.029926
-0.00751336
0.0154112
0.0371618
0.0560517
0.0705568
0.0794796
0.0820883
0.0782212
0.0683297
0.0534541
0.0351131
0.0151552
-0.00447608
-0.0214805
-0.0342292
-0.041637
-0.0438606
-0.0409995
-0.0350235
0.144224
0.187774
0.228142
0.261067
0.284367
0.295575
0.294146
0.280215
0.25652
0.224886
0.187677
0.147582
0.107444
0.0700462
0.0379318
0.0132242
-0.00250954
-0.00839326
-0.00433411
0.0089176
0.0297967
0.0560186
0.0847814
0.113007
0.137667
0.15482
0.16265
0.160002
0.147789
0.12714
0.101023
0.182804
0.238401
0.289785
0.332098
0.36241
0.377917
0.377805
0.361682
0.333025
0.293935
0.247195
0.19605
0.14401
0.0946189
0.0512354
0.0167987
-0.00636509
-0.0167539
-0.013859
0.00169382
0.0281321
0.0626183
0.101484
0.140548
0.175561
0.200735
0.213639
0.212493
0.197983
0.171552
0.136879
0.176889
0.23117
0.28198
0.32469
0.356455
0.374793
0.378162
0.366105
0.341538
0.306062
0.261965
0.212078
0.159644
0.108149
0.0611272
0.0219181
-0.0065626
-0.0221091
-0.0234911
-0.0107067
0.0149039
0.050671
0.0927908
0.136659
0.177376
0.20813
0.225596
0.227725
0.214666
0.187769
0.150969
0.12198
0.160895
0.198879
0.232584
0.260115
0.279275
0.288793
0.287791
0.277383
0.257838
0.229974
0.195167
0.155377
0.113118
0.0713609
0.0333486
0.00233962
-0.0187377
-0.0276593
-0.0232938
-0.00586692
0.0229111
0.05994
0.100998
0.141247
0.173781
0.194761
0.2013
0.193231
0.17135
0.139282
0.0364883
0.0509502
0.068154
0.0868684
0.106603
0.126076
0.144111
0.159342
0.170333
0.175472
0.173447
0.163475
0.145544
0.120566
0.0904338
0.0579198
0.0264186
-0.000449672
-0.0193208
-0.0276215
-0.0240113
-0.00868856
0.0165593
0.0485074
0.082937
0.113521
0.136116
0.147283
0.146224
0.132932
0.110218
-0.0479652
-0.0575501
-0.0605809
-0.0562037
-0.0435077
-0.0228448
0.00471571
0.0372722
0.0708544
0.101951
0.127098
0.143323
0.14859
0.142157
0.124764
0.0986377
0.06723
0.0347827
0.00574615
-0.0158909
-0.0272139
-0.0268614
-0.0152272
0.00557521
0.0320807
0.0586955
0.0811063
0.0954065
0.100225
0.0947667
0.0810283
-0.106849
-0.132725
-0.149287
-0.153996
-0.144955
-0.121788
-0.0855442
-0.038606
0.0132108
0.0649569
0.111535
0.148311
0.171716
0.179749
0.172284
0.151135
0.119803
0.0830082
0.0460327
0.0139408
-0.0091623
-0.0207414
-0.0201479
-0.00867364
0.0107653
0.0330347
0.0537178
0.0685953
0.0758915
0.0742839
0.0652058
-0.126034
-0.156657
-0.176849
-0.183262
-0.173636
-0.147228
-0.105151
-0.0500934
0.0114148
0.0737802
0.131167
0.178185
0.210574
0.22577
0.223272
0.204736
0.173723
0.13521
0.0948893
0.058328
0.030155
0.0133861
0.00905567
0.0161277
0.0318033
0.0508564
0.0687863
0.0812479
0.086335
0.0826192
0.0714952
-0.109628
-0.135003
-0.150531
-0.152911
-0.14008
-0.111244
-0.0675815
-0.0118197
0.0499313
0.112269
0.169542
0.216525
0.249093
0.264788
0.263181
0.245958
0.216681
0.180293
0.142408
0.108466
0.0829122
0.0685329
0.0660918
0.0742621
0.0899622
0.107388
0.122012
0.129566
0.128305
0.117119
0.0978713
-0.0741219
-0.0894118
-0.0966644
-0.0931871
-0.0774046
-0.0486271
-0.0079999
0.0420264
0.0965446
0.150972
0.200505
0.240721
0.268175
0.280914
0.278796
0.263567
0.238625
0.208556
0.178458
0.153131
0.136312
0.130065
0.134473
0.147617
0.165958
0.182941
0.194128
0.195537
0.185807
0.164417
0.134005
-0.0408253
-0.0475452
-0.0484708
-0.0416495
-0.0259368
-0.000709725
0.0331139
0.0736334
0.11738
0.160849
0.200329
0.232386
0.254365
0.264836
0.263868
0.253091
0.235504
0.215051
0.19602
0.182308
0.176739
0.180537
0.193078
0.211919
0.233201
0.249891
0.257821
0.253456
0.235915
0.20531
0.165026
-0.0266344
-0.0310784
-0.0316263
-0.0267928
-0.0155482
0.00285405
0.0279242
0.0584665
0.0921624
0.126467
0.158575
0.1858
0.206001
0.217961
0.221649
0.218292
0.21024
0.200618
0.192818
0.189854
0.193781
0.20523
0.223213
0.245155
0.267299
0.282765
0.287855
0.279584
0.257496
0.22213
0.177275
-0.0375435
-0.047347
-0.054307
-0.0569348
-0.0539238
-0.0441858
-0.0276593
-0.0048435
0.0224919
0.0523811
0.0824745
0.110354
0.133909
0.151698
0.163216
0.169019
0.170654
0.170402
0.170872
0.17445
0.182795
0.196426
0.214521
0.234932
0.254513
0.267315
0.270268
0.260935
0.239118
0.205425
0.163499
-0.0673839
-0.0878497
-0.1056
-0.118726
-0.12538
-0.124017
-0.114043
-0.0954277
-0.0700185
-0.0396487
-0.00669136
0.0262317
0.0566186
0.0824618
0.102552
0.116665
0.12556
0.130815
0.134509
0.138757
0.14526
0.1549
0.16752
0.181862
0.195792
0.204911
0.206819
0.199534
0.182889
0.157185
0.125364
-0.101503
-0.133191
-0.161664
-0.184443
-0.19914
-0.203821
-0.197538
-0.180008
-0.153551
-0.120195
-0.0826344
-0.0439325
-0.0071355
0.0251265
0.0509843
0.0695686
0.0810671
0.0866273
0.0881008
0.087653
0.0873325
0.0886684
0.0923989
0.0983358
0.105466
0.111161
0.113582
0.111032
0.103171
0.0897326
0.0725706
-0.123463
-0.161885
-0.196461
-0.224339
-0.242871
-0.250003
-0.244725
-0.226803
-0.199075
-0.16386
-0.12418
-0.0834405
-0.0450349
-0.0119322
0.0136842
0.0306766
0.0390331
0.0398037
0.0348807
0.0266525
0.0175888
0.0098313
0.00489005
0.00344829
0.00536909
0.00952716
0.0144017
0.0183705
0.0207944
0.0207743
0.018982
-0.121707
-0.159021
-0.19219
-0.218468
-0.235416
-0.241244
-0.235207
-0.217379
-0.190837
-0.158059
-0.122125
-0.0863995
-0.0541433
-0.0281288
-0.0103049
-0.00156502
-0.0016869
-0.00940293
-0.0226146
-0.0387142
-0.0549831
-0.0689877
-0.0788826
-0.0836175
-0.0829739
-0.0772375
-0.0679198
-0.0567608
-0.0447345
-0.0332374
-0.0225839
-0.0936218
-0.121482
-0.145468
-0.163532
-0.173929
-0.17552
-0.168101
-0.152195
-0.130683
-0.105923
-0.0806533
-0.0576853
-0.0395763
-0.0283062
-0.0250222
-0.0298842
-0.0420631
-0.0598531
-0.0809045
-0.102534
-0.122094
-0.137326
-0.146622
-0.149184
-0.145043
-0.13446
-0.119214
-0.101285
-0.081943
-0.0628211
-0.0448323
-0.045824
-0.0581929
-0.0674855
-0.0728354
-0.0735253
-0.0693363
-0.0607429
-0.0487402
-0.0356007
-0.0232877
-0.0138264
-0.00905864
-0.0103917
-0.0185802
-0.0335846
-0.0545273
-0.0797728
-0.107102
-0.133975
-0.15783
-0.176411
-0.188054
-0.191861
-0.187779
-0.176556
-0.159085
-0.137558
-0.114212
-0.0905345
-0.068123
-0.0480713
0.00890252
0.0139495
0.0210216
0.0295938
0.0392822
0.0493295
0.0586081
0.0657456
0.0693042
0.067885
0.0603509
0.0459992
0.0247154
-0.00292489
-0.0356367
-0.0714974
-0.108107
-0.142825
-0.173047
-0.196499
-0.211506
-0.217189
-0.213552
-0.201458
-0.182502
-0.158473
-0.131921
-0.105235
-0.0800424
-0.0577232
-0.0392607
0.0563779
0.0763266
0.0973474
0.11766
0.135988
0.150772
0.160419
0.163358
0.158972
0.146431
0.125414
0.0962107
0.0597779
0.0177462
-0.0276629
-0.073795
-0.117777
-0.156782
-0.188312
-0.210461
-0.222116
-0.223082
-0.214081
-0.19666
-0.172997
-0.14554
-0.11693
-0.0894891
-0.0649367
-0.0443875
-0.0286511
0.0855604
0.114491
0.143905
0.17121
0.194657
0.212251
0.222236
0.223073
0.214755
0.196885
0.16968
0.134009
0.0913871
0.0439152
-0.00585008
-0.0550878
-0.100931
-0.140717
-0.172234
-0.193935
-0.205077
-0.205782
-0.197002
-0.180392
-0.158125
-0.13264
-0.106243
-0.0809083
-0.0584058
-0.0396683
-0.0254996
0.0913356
0.121759
0.152524
0.180839
0.204999
0.22303
0.233378
0.234775
0.227532
0.211484
0.187015
0.155041
0.116986
0.0746977
0.0303337
-0.0137975
-0.0553984
-0.0923648
-0.122954
-0.145928
-0.16063
-0.167016
-0.165625
-0.157498
-0.144061
-0.126866
-0.107405
-0.0870097
-0.0674528
-0.049629
-0.0346601
0.0750804
0.0999321
0.125315
0.148859
0.169373
0.185349
0.195772
0.199871
0.198013
0.190094
0.17633
0.157207
0.133462
0.106032
0.0760051
0.0445571
0.0128995
-0.0177826
-0.0463867
-0.0719393
-0.0936223
-0.110788
-0.122994
-0.130017
-0.131876
-0.128434
-0.119959
-0.10691
-0.090978
-0.0731449
-0.0551919
0.0432584
0.0574721
0.0725139
0.0869022
0.100279
0.111931
0.121624
0.129249
0.135083
0.139
0.140845
0.140379
0.137279
0.13115
0.121574
0.108191
0.0907836
0.0693698
0.0442831
0.0162336
-0.0136674
-0.043931
-0.0728109
-0.0984448
-0.119066
-0.132379
-0.13721
-0.133022
-0.121316
-0.103202
-0.0813504
0.00489849
0.00624452
0.00860487
0.0116041
0.0158259
0.0214966
0.0292636
0.0397501
0.0531221
0.0692359
0.0875399
0.107013
0.12619
0.143247
0.156165
0.162947
0.161862
0.151694
0.131955
0.103057
0.0663846
0.0242541
-0.0202909
-0.0637561
-0.102596
-0.132352
-0.150438
-0.15536
-0.148304
-0.130463
-0.105422
-0.0304194
-0.0410083
-0.050644
-0.0586318
-0.0635676
-0.0643618
-0.0595764
-0.0479225
-0.0292961
-0.00380089
0.0277251
0.0636463
0.101575
0.138517
0.171127
0.196042
0.210254
0.211483
0.198503
0.171404
0.131701
0.0822809
0.0271349
-0.0290165
-0.0812755
-0.123536
-0.152122
-0.164791
-0.16234
-0.14593
-0.119818
-0.0558282
-0.0751305
-0.0937067
-0.110089
-0.122333
-0.128731
-0.127317
-0.116341
-0.0957032
-0.0654247
-0.0264624
0.0192257
0.0687379
0.118406
0.164103
0.20165
0.227248
0.237934
0.231969
0.209147
0.170932
0.120395
0.0619294
0.000817605
-0.0573909
-0.105803
-0.140181
-0.157869
-0.159283
-0.145427
-0.120861
-0.066161
-0.0891329
-0.111561
-0.13173
-0.14756
-0.1572
-0.158476
-0.149523
-0.130244
-0.100585
-0.0614548
-0.0147829
0.0365342
0.0888125
0.137888
0.179521
0.209826
0.225721
0.22532
0.208234
0.175711
0.130578
0.0769709
0.0199207
-0.0352479
-0.0819221
-0.115966
-0.134861
-0.138643
-0.128099
-0.107461
-0.061334
-0.082794
-0.103883
-0.123039
-0.138444
-0.148332
-0.150927
-0.144557
-0.129136
-0.104584
-0.0716409
-0.0319172
0.0121517
0.0574601
0.100489
0.137644
0.165617
0.181761
0.184414
0.173159
0.14893
0.113975
0.0716317
0.0259931
-0.0185937
-0.0567428
-0.0851189
-0.101419
-0.105672
-0.0983938
-0.0830877
-0.0459164
-0.0619889
-0.0778068
-0.0922779
-0.104061
-0.111747
-0.114138
-0.110145
-0.099692
-0.0827278
-0.0597752
-0.0319624
-0.000987751
0.0309916
0.0615367
0.0881579
0.108564
0.120918
0.124057
0.117666
0.102351
0.079615
0.0517025
0.0213731
-0.00844209
-0.034189
-0.053489
-0.0647214
-0.0679991
-0.0635871
-0.0540396
0.181059
0.235294
0.28535
0.325958
0.354368
0.367757
0.365176
0.346911
0.316427
0.275973
0.228432
0.177069
0.125328
0.0765904
0.033969
0.000105165
-0.022987
-0.0340848
-0.0328786
-0.0200612
0.00267928
0.0327566
0.0669024
0.101446
0.132699
0.1559
0.168542
0.169311
0.158845
0.138275
0.110895
0.228764
0.297542
0.360789
0.412415
0.448802
0.466868
0.46527
0.443741
0.406719
0.356807
0.297385
0.232346
0.165874
0.102191
0.0453262
-0.00114576
-0.0343112
-0.0521671
-0.0538364
-0.0397605
-0.0117546
0.0270589
0.0724861
0.11962
0.163358
0.196803
0.216578
0.220671
0.209262
0.183748
0.148126
0.22201
0.288863
0.350896
0.402328
0.439642
0.460191
0.461876
0.444476
0.411859
0.366072
0.309903
0.2467
0.18023
0.114528
0.053697
0.00167607
-0.0379981
-0.0625155
-0.070117
-0.060423
-0.0346212
0.00450206
0.0527308
0.104781
0.154869
0.194993
0.220673
0.229568
0.221129
0.196587
0.160028
0.154841
0.202506
0.248179
0.287564
0.318429
0.338463
0.346232
0.341137
0.325007
0.298378
0.262295
0.218303
0.16851
0.115606
0.062821
0.0137766
-0.0277503
-0.058203
-0.0746855
-0.0754483
-0.0602628
-0.0306344
0.010225
0.0576602
0.106113
0.147642
0.177226
0.191546
0.189617
0.171917
0.142038
0.0505992
0.0680886
0.0875766
0.107377
0.127096
0.145504
0.161723
0.174728
0.183467
0.186357
0.181948
0.169167
0.147641
0.117949
0.0817843
0.0419496
0.00214386
-0.0334426
-0.0606764
-0.0761301
-0.0776679
-0.0648837
-0.0392642
-0.00408865
0.0360102
0.0739869
0.104613
0.123928
0.130226
0.122983
0.104685
-0.0514989
-0.0634801
-0.069442
-0.0684919
-0.0592043
-0.0417101
-0.0162989
0.0155579
0.0500038
0.0833752
0.111754
0.131463
0.139626
0.134665
0.116663
0.0874938
0.0506561
0.0108454
-0.0266847
-0.0569166
-0.0758514
-0.0811596
-0.0725396
-0.0517776
-0.0224255
0.00954759
0.0388941
0.0611458
0.0739712
0.0758941
0.0683123
-0.121574
-0.153495
-0.176621
-0.188065
-0.185121
-0.167042
-0.133704
-0.0869409
-0.0325426
0.0243287
0.0779563
0.122737
0.153931
0.168328
0.164774
0.144405
0.110516
0.0681309
0.0232948
-0.0178255
-0.0498699
-0.0690936
-0.0738717
-0.0648827
-0.0448708
-0.0190885
0.00726805
0.0294416
0.0446732
0.050874
0.0487134
-0.142177
-0.179716
-0.207612
-0.222116
-0.22006
-0.200219
-0.162304
-0.108302
-0.0445615
0.0232128
0.0886017
0.14521
0.187496
0.211521
0.215554
0.20036
0.169096
0.126885
0.080078
0.0352972
-0.00156018
-0.0262046
-0.0365267
-0.032831
-0.0176252
0.00383518
0.0263744
0.0451975
0.0574131
0.060846
0.0561075
-0.11856
-0.149234
-0.171338
-0.181354
-0.176384
-0.1551
-0.117203
-0.0645572
-0.00273739
0.0629776
0.126563
0.181954
0.223843
0.248431
0.254024
0.241333
0.21339
0.175134
0.132687
0.0923986
0.0598573
0.0390193
0.0316486
0.0371015
0.0525664
0.0721319
0.0906395
0.103504
0.108012
0.102418
0.0879164
-0.0712842
-0.0888839
-0.100276
-0.102877
-0.0944506
-0.073763
-0.0405287
0.00381793
0.0553333
0.109847
0.162483
0.208253
0.242758
0.262867
0.267264
0.256723
0.234056
0.203722
0.171164
0.141895
0.120586
0.110269
0.111841
0.12391
0.143092
0.162549
0.177208
0.182918
0.177379
0.159599
0.131744
-0.0268622
-0.0329525
-0.0355144
-0.0330312
-0.0238816
-0.00691647
0.0182833
0.0509352
0.0888956
0.129321
0.1687
0.203305
0.229774
0.245695
0.250092
0.243686
0.228869
0.209377
0.189701
0.174266
0.166619
0.168734
0.180596
0.200114
0.223452
0.243113
0.254272
0.253349
0.238576
0.209746
0.169981
-0.00638885
-0.00846137
-0.0090804
-0.00740345
-0.00203971
0.00824955
0.0242278
0.045842
0.0722779
0.101778
0.131895
0.159822
0.182871
0.198994
0.207222
0.207937
0.20289
0.194959
0.187648
0.184375
0.187768
0.199056
0.217715
0.241403
0.266297
0.284956
0.293026
0.287532
0.267209
0.232379
0.186718
-0.0175488
-0.0248928
-0.0317002
-0.0371539
-0.0396039
-0.0375091
-0.0296034
-0.0153075
0.00506278
0.0303043
0.0584278
0.0869167
0.113162
0.134946
0.150883
0.160727
0.165453
0.167094
0.168344
0.171951
0.180093
0.193828
0.212752
0.234917
0.257102
0.272814
0.278364
0.271304
0.250728
0.217058
0.173899
-0.0530788
-0.0723531
-0.0908199
-0.107111
-0.118974
-0.124455
-0.121779
-0.109981
-0.0896981
-0.0621561
-0.0295004
0.00545196
0.0396464
0.0702809
0.0952799
0.113647
0.125611
0.132537
0.136621
0.140364
0.146003
0.154984
0.167595
0.182816
0.198491
0.209783
0.213741
0.20828
0.192659
0.166967
0.134115
-0.095274
-0.127578
-0.158041
-0.184505
-0.204096
-0.214522
-0.213689
-0.200569
-0.17662
-0.143483
-0.10382
-0.0610356
-0.018819
0.01937
0.0508076
0.0738985
0.0883587
0.095186
0.0964069
0.0946216
0.0924629
0.0920612
0.0946462
0.100319
0.108107
0.115065
0.11889
0.117646
0.110579
0.097169
0.0792354
-0.124169
-0.164627
-0.20209
-0.233822
-0.256647
-0.268213
-0.266448
-0.250577
-0.222913
-0.185599
-0.141792
-0.0953535
-0.050365
-0.0106125
0.0209242
0.0424655
0.0536149
0.0553478
0.0497831
0.039772
0.0283757
0.0183299
0.0116283
0.00924318
0.0110912
0.0157918
0.021437
0.0260316
0.028698
0.0282732
0.0254335
-0.125619
-0.165346
-0.201382
-0.230985
-0.251221
-0.260086
-0.25593
-0.238453
-0.210455
-0.174373
-0.13351
-0.0916969
-0.0528309
-0.0203972
0.00299238
0.0159384
0.018392
0.0116177
-0.00203894
-0.0195376
-0.0376389
-0.053414
-0.0646371
-0.0700607
-0.0694777
-0.0634768
-0.0539076
-0.0429713
-0.0317089
-0.0217261
-0.0132252
-0.0961816
-0.125603
-0.151385
-0.17149
-0.183802
-0.187062
-0.180385
-0.164043
-0.140749
-0.112873
-0.0833426
-0.0553399
-0.0318995
-0.0155172
-0.00780058
-0.00923696
-0.0191416
-0.0357556
-0.056503
-0.0783617
-0.0983146
-0.113794
-0.123002
-0.125115
-0.120312
-0.109297
-0.0941638
-0.0773732
-0.0601161
-0.0441209
-0.0300228
-0.0433778
-0.0555099
-0.0647247
-0.0702869
-0.0712868
-0.0674886
-0.0589492
-0.0464761
-0.0321783
-0.0179941
-0.00603443
0.00166949
0.00345785
-0.00169396
-0.0139737
-0.0326437
-0.0560946
-0.0820214
-0.107711
-0.130395
-0.147642
-0.157697
-0.159694
-0.153752
-0.140908
-0.122664
-0.10151
-0.0801062
-0.0597696
-0.0420539
-0.0276071
0.0180456
0.025528
0.0348755
0.0452542
0.0562819
0.0671215
0.0768051
0.0841276
0.0878747
0.0867412
0.0796411
0.065874
0.0452954
0.0184395
-0.0134336
-0.0483892
-0.0839713
-0.117446
-0.146106
-0.167601
-0.180245
-0.183248
-0.176811
-0.162097
-0.141073
-0.11621
-0.0903192
-0.0660918
-0.0449644
-0.0281641
-0.016136
0.0718295
0.096242
0.121562
0.145525
0.166702
0.183375
0.193905
0.196896
0.192023
0.17861
0.156499
0.126117
0.0885465
0.0455189
-0.000653389
-0.047232
-0.0912651
-0.129861
-0.160483
-0.181233
-0.191076
-0.189967
-0.178856
-0.159575
-0.134619
-0.107009
-0.0795499
-0.0547164
-0.0340807
-0.0185812
-0.00853596
0.105502
0.140357
0.175562
0.207908
0.235412
0.255866
0.267357
0.268538
0.259741
0.240756
0.212008
0.174556
0.130078
0.0807985
0.0293565
-0.0213778
-0.0685148
-0.109392
-0.141815
-0.164273
-0.176076
-0.177414
-0.169322
-0.153547
-0.132352
-0.108408
-0.0840153
-0.0611414
-0.0415019
-0.0259319
-0.0149591
0.113491
0.150591
0.187945
0.222088
0.25107
0.272687
0.285225
0.287633
0.280591
0.264128
0.238821
0.205742
0.166405
0.12268
0.0766762
0.0306075
-0.0133459
-0.0531906
-0.0872595
-0.11433
-0.133687
-0.145143
-0.149026
-0.146114
-0.137548
-0.124566
-0.108409
-0.0902555
-0.0719256
-0.054379
-0.0388179
0.0975465
0.129188
0.161289
0.190806
0.216359
0.236224
0.249327
0.255155
0.254482
0.247403
0.234289
0.215693
0.192302
0.164887
0.134268
0.101298
0.0668593
0.0318672
-0.00273134
-0.0359504
-0.0667628
-0.0941075
-0.11696
-0.134394
-0.145686
-0.149738
-0.146267
-0.135451
-0.119099
-0.0984495
-0.0757879
0.0648859
0.0855491
0.1069
0.126824
0.144861
0.160126
0.172507
0.182215
0.190008
0.19599
0.200142
0.202204
0.201651
0.197706
0.189433
0.175876
0.15624
0.130072
0.0974336
0.0590412
0.0163371
-0.0285334
-0.0728916
-0.113756
-0.148172
-0.172268
-0.184002
-0.18246
-0.169259
-0.145926
-0.116027
0.0252438
0.0324443
0.0403437
0.0479858
0.0559453
0.0643388
0.0741568
0.0864224
0.101903
0.120764
0.142614
0.166365
0.190239
0.211854
0.228443
0.237161
0.235449
0.221401
0.194104
0.153916
0.102592
0.0432493
-0.0198983
-0.0819326
-0.137788
-0.180969
-0.207747
-0.216171
-0.207476
-0.183341
-0.14852
-0.0115561
-0.017001
-0.0220586
-0.0265502
-0.0290076
-0.0283872
-0.0227064
-0.0101946
0.00998903
0.0381566
0.0736941
0.114916
0.159081
0.202538
0.241049
0.270231
0.286051
0.285359
0.266346
0.228937
0.174967
0.108136
0.0336771
-0.0421444
-0.112759
-0.169816
-0.208324
-0.225539
-0.222182
-0.199871
-0.164157
-0.0387991
-0.0537868
-0.0688292
-0.0829268
-0.0940273
-0.100414
-0.0994386
-0.0888123
-0.0675959
-0.0352991
0.00742216
0.0586137
0.115043
0.172379
0.225564
0.269326
0.298753
0.309903
0.300337
0.269565
0.21926
0.153204
0.0769478
-0.00273988
-0.0786756
-0.141781
-0.186459
-0.209541
-0.211238
-0.19291
-0.160337
-0.051712
-0.0712946
-0.0912069
-0.110149
-0.125913
-0.136596
-0.139326
-0.131703
-0.112783
-0.0819704
-0.0398312
0.0117634
0.0696544
0.129571
0.186499
0.235172
0.270645
0.288875
0.287255
0.265044
0.223575
0.166219
0.0980644
0.0254077
-0.0450083
-0.104684
-0.148239
-0.172704
-0.17781
-0.16457
-0.138175
-0.0501666
-0.0691911
-0.0886445
-0.10728
-0.123187
-0.134565
-0.138999
-0.134365
-0.119845
-0.0948753
-0.0598744
-0.0163657
0.0330361
0.0847736
0.13465
0.178239
0.211358
0.230553
0.233536
0.219544
0.189514
0.146056
0.093202
0.0359929
-0.0201407
-0.0683855
-0.104431
-0.12557
-0.131548
-0.122973
-0.10403
-0.0386889
-0.0532982
-0.0682098
-0.0825747
-0.0949729
-0.103974
-0.107926
-0.105398
-0.0958058
-0.0787516
-0.0545207
-0.0241677
0.010497
0.0470144
0.0824841
0.113847
0.138207
0.153162
0.157106
0.149464
0.130817
0.102885
0.068353
0.0305964
-0.006743
-0.0391984
-0.0637128
-0.0783516
-0.0830643
-0.078168
-0.0665853
0.196968
0.255664
0.309639
0.353112
0.383164
0.396675
0.392817
0.371935
0.337816
0.292863
0.240122
0.183004
0.125093
0.069913
0.0207384
-0.0195992
-0.0488568
-0.0655524
-0.0691045
-0.0599485
-0.0395627
-0.0104044
0.0242858
0.0607497
0.0951115
0.122438
0.139859
0.14558
0.140039
0.124032
0.100795
0.249086
0.323238
0.391058
0.445825
0.483724
0.501372
0.497676
0.47249
0.430738
0.375241
0.309561
0.237714
0.163966
0.0926125
0.0277772
-0.026809
-0.0679928
-0.0934482
-0.101913
-0.093422
-0.0694174
-0.0327419
0.012555
0.0615444
0.10894
0.147699
0.173932
0.184892
0.180524
0.161771
0.132412