# vtk DataFile Version 2.0
Func
ASCII
DATASET RECTILINEAR_GRID
DIMENSIONS 31 31 31
X_COORDINATES 31 double
-9.67742
-9.03226
-8.3871
-7.74194
-7.09677
-6.45161
-5.80645
-5.16129
-4.51613
-3.87097
-3.22581
-2.58065
-1.93548
-1.29032
-0.645161
0
0.645161
1.29032
1.93548
2.58065
3.22581
3.87097
4.51613
5.16129
5.80645
6.45161
7.09677
7.74194
8.3871
9.03226
9.67742
Y_COORDINATES 31 double
-9.67742
-9.03226
-8.3871
-7.74194
-7.09677
-6.45161
-5.80645
-5.16129
-4.51613
-3.87097
-3.22581
-2.58065
-1.93548
-1.29032
-0.645161
0
0.645161
1.29032
1.93548
2.58065
3.22581
3.87097
4.51613
5.16129
5.80645
6.45161
7.09677
7.74194
8.3871
9.03226
9.67742
Z_COORDINATES 31 double
-9.67742
-9.03226
-8.3871
-7.74194
-7.09677
-6.45161
-5.80645
-5.16129
-4.51613
-3.87097
-3.22581
-2.58065
-1.93548
-1.29032
-0.645161
0
0.645161
1.29032
1.93548
2.58065
3.22581
3.87097
4.51613
5.16129
5.80645
6.45161
7.09677
7.74194
8.3871
9.03226
9.67742
POINT_DATA 29791
SCALARS data double 1
LOOKUP_TABLE default
0.057998
0.0732503
0.0856847
0.0933491
0.0955591
0.0915293
0.081691
0.0668771
0.048932
0.029195
0.00900569
-0.0104702
-0.0283516
-0.0441239
-0.0576466
-0.0691069
-0.0789201
-0.0876111
-0.0956845
-0.103493
-0.11114
-0.118431
-0.12489
-0.129813
-0.132398
-0.13119
-0.125612
-0.115332
-0.101166
-0.0836776
-0.0646421
0.0726233
0.0910086
0.105093
0.112715
0.112933
0.104984
0.0896359
0.0680761
0.0430035
0.0163825
-0.00987626
-0.0341608
-0.055325
-0.0728012
-0.0866045
-0.097259
-0.105639
-0.112778
-0.119662
-0.127016
-0.135152
-0.143882
-0.152533
-0.160037
-0.165113
-0.165479
-0.160222
-0.148668
-0.131612
-0.109817
-0.0853588
0.06757
0.0831157
0.0936365
0.097027
0.0925234
0.0797762
0.0597047
0.0340411
0.00590334
-0.0223463
-0.0484975
-0.0707807
-0.0880703
-0.100005
-0.106987
-0.110067
-0.110736
-0.110667
-0.11143
-0.114215
-0.119619
-0.12753
-0.137139
-0.147052
-0.155522
-0.159649
-0.157876
-0.149302
-0.134349
-0.113626
-0.089365
0.0418169
0.0486972
0.0506923
0.0461299
0.03481
0.0168306
-0.00637667
-0.0327141
-0.0591449
-0.0832151
-0.102748
-0.116151
-0.122618
-0.122245
-0.116001
-0.105587
-0.0931806
-0.0811246
-0.0715916
-0.0662526
-0.0660241
-0.0709249
-0.0800846
-0.0918641
-0.104134
-0.113642
-0.118257
-0.116449
-0.10826
-0.0938477
-0.0753398
0.00510381
0.000170598
-0.00884185
-0.0229462
-0.0416586
-0.0642413
-0.0889098
-0.113321
-0.134864
-0.15125
-0.160588
-0.161682
-0.154215
-0.138836
-0.117112
-0.0913591
-0.0643594
-0.0390239
-0.018023
-0.00342911
0.0035595
0.00277968
-0.00490199
-0.0177118
-0.0332687
-0.0482002
-0.0598797
-0.0662923
-0.0669326
-0.0614493
-0.0516455
-0.0275276
-0.0427816
-0.0611589
-0.0831397
-0.107661
-0.133484
-0.158579
-0.180492
-0.197108
-0.206377
-0.206738
-0.197384
-0.178425
-0.150956
-0.116987
-0.0792564
-0.0409469
-0.0053321
0.024604
0.0465314
0.0590611
0.061914
0.0559217
0.0429028
0.0253587
0.0066442
-0.0103066
-0.0231311
-0.0309054
-0.032872
-0.0305452
-0.04454
-0.0650564
-0.0881908
-0.11411
-0.14148
-0.16884
-0.194066
-0.214689
-0.228893
-0.234784
-0.230983
-0.216879
-0.192777
-0.159957
-0.120598
-0.0775887
-0.0342493
0.00602346
0.040134
0.0656516
0.0810987
0.0861242
0.0815083
0.0690443
0.0512379
0.0313772
0.0124827
-0.00294279
-0.0137891
-0.0191257
-0.0202226
-0.0402819
-0.0595776
-0.0816772
-0.106859
-0.13389
-0.161413
-0.187322
-0.209149
-0.224994
-0.232896
-0.231382
-0.219732
-0.198131
-0.167742
-0.130631
-0.0895926
-0.0478699
-0.00880803
0.0245241
0.0496979
0.0652158
0.0706883
0.0668444
0.0554167
0.0388492
0.0204041
0.00301473
-0.0108632
-0.0201778
-0.0240722
-0.0237525
-0.0181615
-0.0310076
-0.047542
-0.0685448
-0.0931629
-0.120378
-0.14813
-0.17388
-0.19523
-0.209891
-0.216009
-0.212466
-0.199067
-0.17663
-0.146938
-0.112565
-0.0765968
-0.04228
-0.0126345
0.00992152
0.0238716
0.0287867
0.0253412
0.0152002
0.000730908
-0.0147556
-0.0284898
-0.0381576
-0.042912
-0.042119
-0.0370705
0.0126613
0.00851295
-0.000685521
-0.0164655
-0.0384467
-0.0660153
-0.0970855
-0.128895
-0.15824
-0.182278
-0.198565
-0.205408
-0.202102
-0.189054
-0.167753
-0.140596
-0.11059
-0.0809819
-0.0548445
-0.0346771
-0.0220833
-0.0175711
-0.0205305
-0.0293471
-0.0416953
-0.0541447
-0.0640436
-0.0692054
-0.0689784
-0.0629535
-0.052572
0.0414703
0.0449671
0.04192
0.0299932
0.00920168
-0.0201477
-0.0557973
-0.0945888
-0.132383
-0.165673
-0.191348
-0.207117
-0.2118
-0.205489
-0.189521
-0.166291
-0.138921
-0.11085
-0.085381
-0.0652401
-0.052222
-0.0469727
-0.0489599
-0.0565907
-0.0675192
-0.0781595
-0.0858541
-0.0884315
-0.0852954
-0.0761331
-0.0624841
0.0606455
0.0685815
0.0686874
0.0579563
0.0362639
0.00380433
-0.0368482
-0.0820155
-0.126699
-0.166749
-0.198458
-0.219061
-0.227067
-0.222449
-0.206604
-0.182144
-0.152514
-0.121537
-0.0929063
-0.0696963
-0.0539796
-0.0465869
-0.047072
-0.0538372
-0.0644597
-0.0752171
-0.0833127
-0.0864527
-0.0838934
-0.0752347
-0.0619646
0.0683149
0.0772717
0.0775649
0.0657633
0.0418269
0.00602025
-0.0386976
-0.0881237
-0.136635
-0.179592
-0.212881
-0.233476
-0.239794
-0.231891
-0.211408
-0.181323
-0.145522
-0.108291
-0.0737647
-0.0453986
-0.025555
-0.0152524
-0.0141268
-0.0205656
-0.0320508
-0.0448035
-0.0558196
-0.0625918
-0.0640596
-0.0595836
-0.0504103
0.0678926
0.0759409
0.0750608
0.0616737
0.0359429
-0.00171167
-0.0480061
-0.0983623
-0.146858
-0.188617
-0.219382
-0.236106
-0.237307
-0.223262
-0.195922
-0.158631
-0.115665
-0.0716839
-0.031154
0.00219765
0.0258059
0.0385204
0.0406424
0.0337828
0.0205144
0.00453367
-0.0109888
-0.0233422
-0.0310828
-0.0332759
-0.030758
0.0651201
0.0724591
0.0711852
0.0578134
0.0326867
-0.00365954
-0.0478082
-0.0950954
-0.139651
-0.176673
-0.202045
-0.212915
-0.208036
-0.187929
-0.154785
-0.112151
-0.0644637
-0.016494
0.027226
0.0629342
0.0880443
0.101382
0.103216
0.0951116
0.0795941
0.0600957
0.0398008
0.0215015
0.00696389
-0.0026348
-0.00762388
0.064296
0.072598
0.0731346
0.0626936
0.0416722
0.0105963
-0.0272592
-0.0675109
-0.104677
-0.134355
-0.152837
-0.157643
-0.147823
-0.124085
-0.0886747
-0.0450702
0.00247541
0.0494517
0.0916217
0.1255
0.148712
0.160195
0.160216
0.150227
0.132564
0.110196
0.0860946
0.0629294
0.0426307
0.0264862
0.0146835
0.065771
0.0766869
0.0811437
0.0763294
0.0625575
0.0402169
0.0121603
-0.0178624
-0.0450626
-0.0657276
-0.0767913
-0.0762859
-0.0635809
-0.0394743
-0.00606278
0.0335455
0.0756361
0.116337
0.152067
0.179924
0.19797
0.205382
0.202445
0.190426
0.171321
0.147448
0.121333
0.0952956
0.0712341
0.0503916
0.03341
0.0659695
0.0796748
0.0885924
0.090413
0.0853033
0.0734623
0.0571178
0.0391323
0.0233426
0.0125472
0.00899179
0.0140254
0.0279369
0.0499098
0.0781552
0.110159
0.143014
0.173768
0.199763
0.218904
0.229854
0.23211
0.225988
0.212501
0.19318
0.169562
0.143538
0.116891
0.0913197
0.067897
0.0476213
0.0598156
0.0744221
0.0861447
0.0932675
0.0958634
0.0939959
0.089194
0.0833334
0.0791091
0.0782816
0.0821696
0.0914307
0.105981
0.125002
0.147073
0.170366
0.192898
0.212759
0.228324
0.238399
0.242305
0.239888
0.231479
0.217792
0.199822
0.178266
0.154287
0.129027
0.103888
0.0797103
0.0577552
0.0441529
0.056328
0.0675595
0.0767937
0.0841491
0.0896888
0.0943042
0.0989484
0.105094
0.113463
0.124441
0.137975
0.153587
0.170426
0.187404
0.203342
0.21713
0.227848
0.234851
0.237789
0.23659
0.231405
0.222545
0.210405
0.195429
0.177499
0.157049
0.134581
0.11119
0.0874866
0.0649382
0.020264
0.026749
0.0340103
0.0416641
0.0500215
0.0592902
0.0698839
0.0820285
0.0960478
0.111765
0.128741
0.146291
0.163561
0.179643
0.193695
0.205056
0.213322
0.218373
0.220346
0.219555
0.216389
0.211192
0.204197
0.195471
0.184941
0.171757
0.155712
0.13675
0.115719
0.0930623
0.07044
-0.00591025
-0.00665865
-0.00541423
-0.00198353
0.00420396
0.013575
0.026266
0.0420458
0.0603425
0.0803472
0.101043
0.121295
0.139992
0.156185
0.169211
0.178772
0.184949
0.188156
0.189037
0.188308
0.186592
0.184274
0.181422
0.177762
0.172756
0.164939
0.15359
0.138235
0.119581
0.0979918
0.075348
-0.0259765
-0.0328508
-0.0372534
-0.0386295
-0.0362138
-0.0294045
-0.0181576
-0.00287874
0.01538
0.0355432
0.056366
0.0765663
0.0949857
0.110744
0.123348
0.132743
0.139289
0.143664
0.146717
0.149274
0.151941
0.154951
0.158098
0.160738
0.161915
0.159655
0.152867
0.140812
0.124165
0.103313
0.0804023
-0.0326906
-0.0421755
-0.0495519
-0.0542188
-0.0554027
-0.052477
-0.0453658
-0.0344006
-0.020609
-0.00493313
0.0115597
0.0278035
0.0428824
0.0561651
0.0673924
0.0767011
0.0845742
0.091729
0.0989553
0.106912
0.115945
0.125942
0.136305
0.145976
0.153607
0.156798
0.154212
0.144986
0.129851
0.109307
0.0858056
-0.0231923
-0.0306644
-0.037149
-0.0423445
-0.0457076
-0.0467927
-0.0454286
-0.041698
-0.0361247
-0.0291625
-0.0213297
-0.0131275
-0.00493835
0.00306024
0.0109461
0.0190498
0.0278927
0.0380755
0.0501297
0.06434
0.0805944
0.0982858
0.116321
0.133188
0.147165
0.155487
0.156674
0.149844
0.135835
0.11532
0.0910611
-0.000185126
-0.00163962
-0.00370566
-0.00667585
-0.0104356
-0.0148983
-0.0197937
-0.0248633
-0.0297935
-0.034318
-0.0381564
-0.041003
-0.0424988
-0.0422131
-0.0396409
-0.0342342
-0.0254682
-0.0129394
0.00351695
0.0236937
0.0469169
0.0720037
0.0973233
0.120908
0.140689
0.153609
0.158116
0.153381
0.140355
0.119912
0.0950726
0.0282917
0.0346848
0.0387851
0.0396281
0.0368228
0.030023
0.0195647
0.00604287
-0.00931402
-0.025486
-0.0413529
-0.0557642
-0.0675875
-0.0757636
-0.0793535
-0.0775978
-0.0699808
-0.0563106
-0.0367974
-0.0121345
0.0164674
0.0472987
0.0782617
0.107018
0.131244
0.147719
0.154895
0.152038
0.140176
0.120344
0.0956937
0.0528507
0.0661227
0.0758816
0.0805164
0.0792114
0.0712329
0.0569414
0.0371764
0.013893
-0.0113023
-0.0366282
-0.0602655
-0.0804716
-0.0956943
-0.10466
-0.106456
-0.100587
-0.0870392
-0.0663218
-0.0394974
-0.00816345
0.0256168
0.0594607
0.0908395
0.117337
0.135759
0.144649
0.143381
0.133001
0.114624
0.0913631
0.0647859
0.081428
0.0941763
0.101052
0.10101
0.0931634
0.077775
0.0557745
0.0294217
0.000558071
-0.0287606
-0.0564334
-0.0804633
-0.0991011
-0.110956
-0.115082
-0.111036
-0.0989155
-0.0793778
-0.0536341
-0.023396
0.00922195
0.0418603
0.0720905
0.0976512
0.11565
0.124813
0.124707
0.116244
0.100508
0.0802535
0.0607491
0.0765366
0.0889343
0.0959646
0.096651
0.0900249
0.0764341
0.0566513
0.0327314
0.00635194
-0.0205985
-0.0461881
-0.0685816
-0.0861841
-0.0977429
-0.10243
-0.0998852
-0.0902491
-0.0741568
-0.0527196
-0.0274589
-0.000210438
0.027021
0.0522107
0.0735078
0.0886124
0.0965784
0.096983
0.0906533
0.078478
0.0626689
0.0444293
0.0559551
0.0652695
0.0706453
0.0714458
0.0668751
0.0571629
0.0429299
0.0256161
0.00643413
-0.0132365
-0.0319804
-0.0484499
-0.0614748
-0.0701414
-0.0738527
-0.0723622
-0.0657916
-0.0546239
-0.0396796
-0.0220629
-0.00308647
0.0158367
0.0332992
0.0480335
0.0585319
0.0641178
0.0644976
0.0603304
0.0522049
0.0416947
0.0861012
0.108486
0.126234
0.136604
0.138478
0.130849
0.114314
0.0900576
0.0609991
0.0292593
-0.00302339
-0.0339592
-0.0620894
-0.0865202
-0.106948
-0.123604
-0.137114
-0.148318
-0.158073
-0.16705
-0.175574
-0.183536
-0.1904
-0.19527
-0.197066
-0.193645
-0.184313
-0.168622
-0.147533
-0.121918
-0.0939826
0.107065
0.133875
0.153824
0.163765
0.162262
0.148457
0.123379
0.088615
0.0484013
0.00580035
-0.0361717
-0.0749179
-0.108528
-0.135962
-0.15708
-0.172558
-0.183661
-0.191971
-0.199072
-0.206228
-0.214142
-0.222802
-0.231486
-0.238856
-0.243211
-0.241224
-0.231871
-0.214257
-0.18914
-0.157576
-0.122187
0.100038
0.122811
0.137636
0.141433
0.132989
0.11203
0.0797537
0.0385513
-0.00673245
-0.0524343
-0.0950624
-0.131735
-0.160506
-0.180562
-0.192256
-0.196975
-0.196846
-0.194362
-0.191974
-0.191656
-0.194588
-0.200948
-0.209899
-0.219714
-0.228089
-0.230866
-0.226134
-0.212697
-0.190713
-0.161
-0.126305
0.0640168
0.0746746
0.0775856
0.0703102
0.052368
0.0239617
-0.0129268
-0.0553318
-0.0985585
-0.138796
-0.172568
-0.197197
-0.211138
-0.214171
-0.207409
-0.19312
-0.174383
-0.154643
-0.137222
-0.124814
-0.119102
-0.120507
-0.128159
-0.14004
-0.153346
-0.163485
-0.167709
-0.16386
-0.15162
-0.13119
-0.105059
0.0126793
0.00699892
-0.00530661
-0.0256558
-0.053614
-0.0882411
-0.127018
-0.166558
-0.202838
-0.232277
-0.251796
-0.259258
-0.25377
-0.235862
-0.207458
-0.171663
-0.13239
-0.0938786
-0.0601561
-0.0345033
-0.0190248
-0.0143773
-0.0197297
-0.0329045
-0.0507647
-0.0686079
-0.0829341
-0.0908439
-0.091318
-0.083844
-0.0703372
-0.0320872
-0.0517064
-0.0766364
-0.107451
-0.142954
-0.181652
-0.220652
-0.256354
-0.285485
-0.304812
-0.311715
-0.304592
-0.283137
-0.248481
-0.203147
-0.150816
-0.0959441
-0.043269
0.00274517
0.0384553
0.0614839
0.0710063
0.0677992
0.0540991
0.033213
0.00978714
-0.0121891
-0.0292783
-0.039946
-0.0431231
-0.0402244
-0.0541818
-0.0804965
-0.111402
-0.147024
-0.185823
-0.22608
-0.264773
-0.298256
-0.323702
-0.338098
-0.339084
-0.325328
-0.296792
-0.254858
-0.202275
-0.142925
-0.0814456
-0.0227376
0.0285895
0.0687625
0.0952932
0.107272
0.10542
0.091959
0.0702209
0.044768
0.0197472
-0.00118398
-0.0162679
-0.0242025
-0.0260696
-0.0458349
-0.0696707
-0.0983694
-0.132272
-0.169999
-0.20997
-0.249219
-0.284119
-0.311679
-0.328785
-0.332934
-0.32264
-0.297692
-0.25931
-0.210096
-0.153806
-0.0949786
-0.0384473
0.0112165
0.0502519
0.0761604
0.088005
0.0864703
0.07373
0.0530681
0.0290639
0.00575878
-0.0132548
-0.0262891
-0.0321469
-0.0318935
-0.0123315
-0.026452
-0.0467312
-0.0743099
-0.108342
-0.147634
-0.189315
-0.229693
-0.264973
-0.291547
-0.306354
-0.307339
-0.293761
-0.266382
-0.227435
-0.180406
-0.129659
-0.0799199
-0.0357166
-0.000802581
0.0223079
0.0326503
0.0308754
0.019116
0.000604819
-0.0199239
-0.0386462
-0.0521695
-0.0590382
-0.0583562
-0.0514172
0.0328585
0.0313312
0.0216205
0.00144375
-0.0289988
-0.0689394
-0.115481
-0.164634
-0.211326
-0.251115
-0.280069
-0.295312
-0.295403
-0.280569
-0.252693
-0.215091
-0.172094
-0.128504
-0.0889783
-0.0574177
-0.0364641
-0.0271724
-0.0289376
-0.0396358
-0.0560228
-0.0730968
-0.0871701
-0.0950136
-0.0953679
-0.0876245
-0.0733879
0.0742773
0.0834965
0.0822601
0.06712
0.0377916
-0.00524084
-0.0587988
-0.118313
-0.177235
-0.230112
-0.27202
-0.29923
-0.30966
-0.303154
-0.281473
-0.248041
-0.207467
-0.164931
-0.125502
-0.0934534
-0.0717217
-0.0615453
-0.0623875
-0.0720906
-0.087305
-0.102718
-0.114574
-0.119622
-0.116607
-0.105014
-0.0866518
0.101162
0.116282
0.118919
0.104712
0.0732108
0.0248587
-0.0366285
-0.105875
-0.174977
-0.237484
-0.28758
-0.320854
-0.33482
-0.329229
-0.306036
-0.2691
-0.223623
-0.175448
-0.130294
-0.0930027
-0.0669325
-0.0535807
-0.0524973
-0.0614578
-0.0769298
-0.0933375
-0.106645
-0.113361
-0.111973
-0.101799
-0.0846008
0.11116
0.127163
0.129275
0.112618
0.0768882
0.0226978
-0.0455676
-0.121681
-0.19674
-0.263517
-0.315571
-0.348113
-0.358564
-0.346869
-0.315439
-0.268775
-0.21283
-0.154224
-0.0993973
-0.0537918
-0.0212108
-0.00341514
-4.12854e-05
-0.0087933
-0.0259411
-0.0457889
-0.0639107
-0.0764401
-0.081412
-0.0777625
-0.0669184
0.10947
0.123584
0.123226
0.103397
0.0641081
0.00621849
-0.0652962
-0.14356
-0.219166
-0.284481
-0.332822
-0.359366
-0.361715
-0.340193
-0.297742
-0.239489
-0.172038
-0.102628
-0.0382382
0.0152588
0.0537564
0.075315
0.0802357
0.0708511
0.0510125
0.0263104
0.0014932
-0.019231
-0.0333885
-0.0394685
-0.0383338
0.104413
0.116956
0.115331
0.0947329
0.0554503
-0.00147896
-0.0707889
-0.145387
-0.215897
-0.274747
-0.315436
-0.333426
-0.326684
-0.295939
-0.244534
-0.177954
-0.10309
-0.0273852
0.0420615
0.0993197
0.140261
0.162933
0.167617
0.156606
0.133708
0.104122
0.072675
0.0437079
0.0200835
0.0036669
-0.00573675
0.10195
0.115297
0.115637
0.0985585
0.0644631
0.0143961
-0.0465224
-0.111549
-0.171853
-0.220424
-0.25135
-0.260652
-0.246753
-0.210689
-0.155925
-0.0878715
-0.0131756
0.0610952
0.128281
0.182876
0.221091
0.241171
0.243421
0.229992
0.20442
0.171211
0.134915
0.0996706
0.0684839
0.0433695
0.0247707
0.102184
0.118574
0.123885
0.114241
0.0899801
0.0519898
0.00480173
-0.045739
-0.0918285
-0.127472
-0.147719
-0.149367
-0.131345
-0.0948568
-0.0431716
0.0188251
0.0852799
0.15008
0.207561
0.253116
0.283644
0.297781
0.295895
0.279883
0.252776
0.218108
0.179782
0.141379
0.105758
0.0748468
0.0496051
0.0996313
0.119099
0.130045
0.129267
0.116975
0.0938262
0.0634491
0.030396
0.00102106
-0.0200602
-0.0291489
-0.0240044
-0.0041104
0.0292599
0.0732607
0.123873
0.176444
0.226249
0.26903
0.301428
0.321283
0.327759
0.321304
0.303459
0.276571
0.242999
0.205714
0.167453
0.130682
0.0970612
0.067908
0.0869659
0.106595
0.120671
0.126835
0.125251
0.116416
0.10294
0.0879323
0.0759692
0.0700742
0.0725087
0.0844181
0.105698
0.135017
0.170034
0.207737
0.244848
0.278221
0.305181
0.323765
0.332854
0.332187
0.32228
0.304263
0.27969
0.249666
0.216083
0.180684
0.145413
0.111569
0.0806982
0.0600761
0.0750141
0.0874662
0.0960703
0.101148
0.103186
0.103882
0.104997
0.109168
0.117804
0.131693
0.150839
0.174468
0.201132
0.22894
0.255824
0.279815
0.299272
0.31303
0.320448
0.321383
0.316096
0.30513
0.28918
0.269001
0.244482
0.216448
0.185651
0.153511
0.120976
0.0897492
0.0216124
0.0273523
0.0333644
0.0393487
0.045975
0.0538897
0.0641156
0.0773575
0.0943981
0.115219
0.139286
0.16556
0.192623
0.218865
0.242716
0.262858
0.278387
0.288889
0.294426
0.295421
0.292495
0.286278
0.277268
0.265724
0.251666
0.233903
0.212326
0.186838
0.15843
0.127788
0.0967731
-0.0189692
-0.0242223
-0.0271892
-0.0272217
-0.0232347
-0.0143463
8.00177e-05
0.0200809
0.0449579
0.0736557
0.104675
0.13621
0.166367
0.193408
0.215987
0.233313
0.245222
0.252142
0.254956
0.254768
0.252641
0.249354
0.245241
0.240123
0.233374
0.222912
0.207897
0.187597
0.16273
0.133853
0.103035
-0.0489256
-0.0630021
-0.0738782
-0.0802945
-0.0808775
-0.0745751
-0.0608911
-0.0400668
-0.013642
0.0168349
0.0494268
0.0820131
0.112554
0.139355
0.16129
0.177931
0.18955
0.197022
0.20161
0.204667
0.20733
0.210246
0.213435
0.216243
0.21748
0.214348
0.205497
0.189792
0.167843
0.140217
0.109264
-0.0576803
-0.0749564
-0.0893781
-0.0995921
-0.104234
-0.10227
-0.0931995
-0.0772152
-0.0559072
-0.0307136
-0.00339508
0.0241718
0.0502457
0.0734626
0.0930256
0.108798
0.121273
0.131436
0.140535
0.149765
0.159965
0.171372
0.183509
0.195187
0.204699
0.208662
0.205406
0.193611
0.173901
0.146979
0.115535
-0.0415193
-0.0549449
-0.067003
-0.0768233
-0.0834124
-0.0860067
-0.0840471
-0.0774569
-0.0671168
-0.0538124
-0.0385556
-0.0224387
-0.00645068
0.00869828
0.0227117
0.0357595
0.048429
0.0615861
0.0761615
0.0928687
0.111952
0.132994
0.154863
0.175769
0.193505
0.204207
0.206032
0.197628
0.179714
0.153209
0.121166
-0.00514212
-0.0088181
-0.0133527
-0.0188442
-0.0249643
-0.0314307
-0.0376461
-0.0431518
-0.0475826
-0.0507075
-0.0523941
-0.052567
-0.0511299
-0.0478891
-0.0424914
-0.0344171
-0.0230363
-0.00773012
0.0119395
0.0360119
0.0639567
0.0945611
0.125954
0.155722
0.181187
0.198103
0.204553
0.199266
0.18307
0.157132
0.124823
0.0389855
0.0475431
0.052875
0.0537555
0.0497394
0.0405449
0.0267552
0.00920432
-0.0103549
-0.0306018
-0.0501722
-0.067739
-0.0820477
-0.0919487
-0.0964138
-0.0945756
-0.0857831
-0.0696986
-0.0464105
-0.0165739
0.018509
0.0568673
0.0959595
0.132843
0.164483
0.186423
0.196768
0.194388
0.18019
0.155547
0.124014
0.0768739
0.0960619
0.11025
0.117158
0.115683
0.105033
0.0857376
0.0589016
0.0273994
-0.00657608
-0.0406613
-0.0725049
-0.0999052
-0.120932
-0.134011
-0.138005
-0.132262
-0.116694
-0.0918265
-0.0588737
-0.0197313
0.0230801
0.06657
0.107489
0.142647
0.167629
0.180658
0.180768
0.168899
0.146527
0.117178
0.0955061
0.120016
0.138887
0.149264
0.149687
0.139176
0.118044
0.0874874
0.0508727
0.0107682
-0.03001
-0.068634
-0.102456
-0.129184
-0.147006
-0.154689
-0.151629
-0.137902
-0.114276
-0.0822294
-0.0438904
-0.00192763
0.0406294
0.0806115
0.115005
0.139806
0.153462
0.155301
0.146114
0.12732
0.102045
0.0903941
0.113911
0.132424
0.143084
0.14449
0.135476
0.116495
0.0885185
0.05464
0.0172374
-0.0210499
-0.0575569
-0.0897823
-0.115571
-0.133239
-0.141672
-0.140371
-0.12948
-0.109785
-0.082693
-0.0501534
-0.0145393
0.0215243
0.0553554
0.0844581
0.105629
0.117722
0.120082
0.113492
0.0991283
0.0794886
0.0669665
0.0843798
0.0984233
0.106678
0.108158
0.101816
0.0879665
0.0674493
0.0424446
0.0147007
-0.0138177
-0.0411156
-0.0653115
-0.0847845
-0.0982742
-0.104956
-0.104477
-0.096974
-0.0830652
-0.0638191
-0.040686
-0.0154038
0.0101383
0.0340419
0.0545691
0.0696091
0.0782896
0.0801391
0.0758669
0.0663169
0.0532063
0.108296
0.136126
0.157802
0.169904
0.170919
0.159665
0.136669
0.10352
0.0639725
0.0208216
-0.0230711
-0.0651172
-0.103252
-0.136119
-0.163134
-0.184435
-0.200722
-0.213048
-0.222573
-0.230299
-0.236864
-0.242408
-0.246553
-0.248466
-0.247041
-0.239841
-0.226047
-0.205365
-0.178744
-0.147192
-0.113163
0.134497
0.167815
0.192175
0.20361
0.200169
0.180864
0.146637
0.0995829
0.0450942
-0.0128332
-0.0701847
-0.1234
-0.169741
-0.207541
-0.236297
-0.256592
-0.269847
-0.278004
-0.283138
-0.287053
-0.290956
-0.295253
-0.299487
-0.302438
-0.302377
-0.29556
-0.28079
-0.257348
-0.225822
-0.187383
-0.144893
0.126532
0.155109
0.173359
0.177425
0.165534
0.137348
0.0939699
0.0384505
-0.0230776
-0.0858618
-0.145251
-0.197252
-0.238971
-0.268902
-0.287022
-0.294683
-0.294286
-0.288852
-0.281528
-0.275042
-0.271282
-0.271006
-0.273761
-0.277992
-0.281364
-0.279263
-0.269446
-0.250866
-0.223336
-0.187716
-0.146859
0.0830607
0.097245
0.101385
0.0923753
0.06932
0.0323509
-0.0164404
-0.0733975
-0.132608
-0.189147
-0.238364
-0.276466
-0.300969
-0.310997
-0.307351
-0.292365
-0.269525
-0.242968
-0.216894
-0.194938
-0.179665
-0.17222
-0.172221
-0.177868
-0.186315
-0.192546
-0.193353
-0.186495
-0.171199
-0.147492
-0.117847
0.021528
0.0165177
0.00285921
-0.0212692
-0.0556781
-0.0994635
-0.14983
-0.202738
-0.253143
-0.296438
-0.328465
-0.34607
-0.347523
-0.332789
-0.303578
-0.263158
-0.215957
-0.16702
-0.121374
-0.0833608
-0.0560804
-0.0410076
-0.037864
-0.0447222
-0.0583941
-0.0738102
-0.0869018
-0.0944783
-0.0949403
-0.0874058
-0.0735886
-0.0309523
-0.0518803
-0.0798355
-0.115575
-0.158016
-0.205698
-0.255341
-0.302771
-0.343902
-0.37459
-0.39126
-0.391409
-0.373991
-0.339662
-0.290801
-0.231304
-0.166194
-0.10106
-0.0414083
0.00801201
0.0437867
0.0642404
0.0695766
0.0617775
0.0442177
0.0218712
-0.000639816
-0.0194277
-0.0323171
-0.0377397
-0.036778
-0.0549709
-0.0828593
-0.116846
-0.157159
-0.202341
-0.250735
-0.298907
-0.342738
-0.378697
-0.402948
-0.412258
-0.404468
-0.378852
-0.336353
-0.279592
-0.21267
-0.140779
-0.0696553
-0.00492738
0.0485486
0.0872718
0.109506
0.115428
0.107028
0.0877347
0.0624509
0.0359754
0.0124799
-0.00563675
-0.0165479
-0.0209893
-0.0414444
-0.0651613
-0.095276
-0.132326
-0.175098
-0.222113
-0.270063
-0.314891
-0.352842
-0.37997
-0.392888
-0.389255
-0.368155
-0.330343
-0.278264
-0.215866
-0.148215
-0.0809441
-0.0196041
0.0310082
0.0674359
0.0879763
0.0928288
0.084
0.064922
0.0406002
0.0157354
-0.00558453
-0.0210731
-0.0290755
-0.0304088
0.00237619
-0.00867651
-0.0277143
-0.0563122
-0.0939375
-0.139529
-0.189961
-0.241058
-0.288016
-0.32627
-0.351744
-0.361422
-0.353772
-0.329036
-0.289268
-0.238151
-0.180583
-0.122107
-0.068232
-0.0237324
0.00796024
0.0251796
0.0281745
0.0190032
0.00113511
-0.020116
-0.0402285
-0.0553601
-0.0635023
-0.0634051
-0.0562789
0.0593022
0.0638794
0.0579314
0.0384405
0.00515469
-0.0412734
-0.0977264
-0.159547
-0.220259
-0.274229
-0.316291
-0.342438
-0.350335
-0.339658
-0.312148
-0.271403
-0.222405
-0.170889
-0.122596
-0.0825072
-0.0541947
-0.0393759
-0.0377636
-0.047191
-0.064048
-0.0825557
-0.0982245
-0.107382
-0.108223
-0.0998585
-0.0839736
0.11012
0.127476
0.131385
0.117384
0.0846789
0.0337158
-0.0320265
-0.10699
-0.182766
-0.252389
-0.309438
-0.348868
-0.367631
-0.36505
-0.342878
-0.305024
-0.256991
-0.205139
-0.155833
-0.114585
-0.0853422
-0.0700079
-0.0682903
-0.0778588
-0.094834
-0.112917
-0.127374
-0.134428
-0.132224
-0.119965
-0.0996411
0.141913
0.16567
0.173273
0.159157
0.122406
0.063561
-0.0131554
-0.100968
-0.189662
-0.270936
-0.337207
-0.382601
-0.403643
-0.399676
-0.372875
-0.327891
-0.271167
-0.210068
-0.151914
-0.103008
-0.0678591
-0.0486634
-0.0451617
-0.0548275
-0.0734204
-0.0941905
-0.111901
-0.122362
-0.123355
-0.113827
-0.0957328
0.152477
0.176305
0.181972
0.163298
0.119651
0.0518973
-0.0347787
-0.132323
-0.229149
-0.315866
-0.384053
-0.427362
-0.442265
-0.428476
-0.388899
-0.329181
-0.2569
-0.180562
-0.108525
-0.0479376
-0.00389585
0.0210904
0.0272352
0.0172504
-0.00426318
-0.0302961
-0.0550122
-0.0736248
-0.0833317
-0.0825638
-0.0728717
0.148883
0.169459
0.170853
0.146755
0.0970076
0.0228702
-0.0695904
-0.171316
-0.269955
-0.355493
-0.419132
-0.454468
-0.458239
-0.430727
-0.375638
-0.299554
-0.211025
-0.119476
-0.0340493
0.0374999
0.0896699
0.119745
0.127912
0.117004
0.0918602
0.0594512
0.0260694
-0.0029546
-0.0242076
-0.035545
-0.0378405
0.14163
0.159531
0.15835
0.131998
0.0807338
0.00609469
-0.0853568
-0.184135
-0.277804
-0.35632
-0.411043
-0.435901
-0.428111
-0.388525
-0.321445
-0.234011
-0.135237
-0.0348943
0.0576581
0.134558
0.190275
0.222102
0.230247
0.21755
0.188849
0.150703
0.109492
0.0707948
0.0384455
0.0150133
0.000399536
0.137698
0.155945
0.156346
0.133258
0.0871336
0.0195625
-0.0629747
-0.151316
-0.233618
-0.30046
-0.343894
-0.358529
-0.34217
-0.296095
-0.224816
-0.135444
-0.0367395
0.0619556
0.151818
0.225524
0.277995
0.306808
0.31225
0.29702
0.265646
0.223878
0.177682
0.132429
0.0920306
0.059191
0.034515
0.136389
0.157609
0.163282
0.148397
0.113371
0.0596402
-0.00698082
-0.0783857
-0.143975
-0.195572
-0.226417
-0.232104
-0.211099
-0.164927
-0.0978973
-0.0164909
0.0715093
0.157966
0.235329
0.297448
0.34016
0.361592
0.362155
0.344264
0.311826
0.269414
0.222091
0.174532
0.130348
0.0920601
0.0607976
0.130112
0.153995
0.165544
0.160583
0.139431
0.10328
0.0568736
0.00672671
-0.0384051
-0.0720931
-0.0891834
-0.0865261
-0.0633408
-0.0212941
0.0357966
0.102518
0.172601
0.239682
0.298034
0.343145
0.372109
0.383793
0.378763
0.35903
0.327642
0.287734
0.2431
0.19734
0.153457
0.113548
0.0790661
0.109532
0.132069
0.146123
0.148618
0.139905
0.121012
0.095476
0.0679953
0.0449988
0.0308475
0.0288038
0.0405453
0.0659777
0.103278
0.149209
0.199595
0.249908
0.295811
0.333639
0.360725
0.375571
0.377856
0.368309
0.348469
0.320409
0.285717
0.24675
0.205847
0.165242
0.1265
0.0912394
0.0701209
0.0851091
0.0956803
0.100114
0.0990653
0.0935754
0.0861197
0.0796648
0.0780526
0.0835028
0.097295
0.119534
0.14915
0.184066
0.221531
0.258521
0.29216
0.320053
0.340515
0.352647
0.356292
0.351899
0.340325
0.322634
0.299935
0.272323
0.240765
0.206355
0.170564
0.134445
0.0997145
0.0164598
0.0185158
0.019893
0.020344
0.0210737
0.0233179
0.0287998
0.0390867
0.0555055
0.078341
0.107051
0.14026
0.175935
0.211663
0.245007
0.273845
0.29664
0.312594
0.321652
0.324369
0.321683
0.314639
0.304159
0.290856
0.27498
0.25533
0.231681
0.204075
0.173352
0.140168
0.106346
-0.0381934
-0.0506635
-0.0609839
-0.0680708
-0.0701104
-0.0656004
-0.0532294
-0.0323698
-0.00373953
0.0314895
0.0713894
0.113447
0.154874
0.192966
0.225476
0.250902
0.268645
0.279019
0.2831
0.282423
0.27863
0.273103
0.266701
0.259611
0.251367
0.239729
0.223569
0.20216
0.175911
0.145248
0.112159
-0.0769002
-0.100305
-0.120117
-0.134383
-0.140886
-0.137954
-0.12443
-0.100152
-0.067049
-0.027062
0.0171706
0.0625838
0.106064
0.14485
0.176896
0.201125
0.217506
0.226974
0.231182
0.232112
0.231646
0.231166
0.231289
0.231748
0.231485
0.227471
0.217963
0.20177
0.179076
0.150249
0.11752
-0.0862889
-0.112769
-0.135822
-0.153343
-0.163135
-0.163595
-0.153611
-0.133075
-0.104085
-0.0685727
-0.0290841
0.0115003
0.0503379
0.0850032
0.11382
0.136069
0.152024
0.162825
0.170204
0.17607
0.182078
0.189246
0.197723
0.206711
0.214619
0.217822
0.214202
0.202372
0.182451
0.154898
0.122254
-0.0624608
-0.0826871
-0.101126
-0.116319
-0.12659
-0.130705
-0.1276
-0.116924
-0.0999439
-0.0778631
-0.0523757
-0.0254515
0.000955356
0.025206
0.046242
0.0637452
0.0781475
0.0905031
0.102232
0.114744
0.129067
0.145524
0.163572
0.181782
0.198038
0.208243
0.210086
0.202169
0.184655
0.158205
0.125681
-0.0125772
-0.0190932
-0.026449
-0.0344908
-0.042464
-0.049747
-0.0553926
-0.0586399
-0.0592033
-0.0570656
-0.052524
-0.0461051
-0.0384071
-0.0299228
-0.0208702
-0.011092
-5.56492e-05
0.0130386
0.0290552
0.0486293
0.071891
0.09825
0.126317
0.15396
0.178547
0.195608
0.202753
0.198692
0.183683
0.158635
0.126699
0.0464509
0.0564172
0.0626928
0.0638883
0.0596988
0.0500445
0.0356819
0.0178038
-0.00154781
-0.0210052
-0.0393143
-0.0554053
-0.0683823
-0.0774856
-0.0820294
-0.0813653
-0.0748862
-0.0621051
-0.042788
-0.0171481
0.0139952
0.0491177
0.0860076
0.121889
0.153707
0.176783
0.188755
0.188504
0.176378
0.153513
0.123233
0.096499
0.120512
0.138634
0.148047
0.147544
0.13641
0.115192
0.0854082
0.0505382
0.0130637
-0.0244597
-0.0596082
-0.0902138
-0.114447
-0.130853
-0.138374
-0.136357
-0.124605
-0.10344
-0.0738065
-0.0373149
0.00376453
0.0466
0.0879802
0.124617
0.151873
0.167517
0.170618
0.161595
0.141729
0.114308
0.121147
0.152184
0.176443
0.190366
0.192219
0.181038
0.157019
0.121786
0.0794713
0.0330785
-0.0141909
-0.0592104
-0.0991347
-0.131559
-0.154622
-0.167066
-0.168251
-0.158186
-0.13754
-0.10767
-0.0705895
-0.0288869
0.0144228
0.0561048
0.0929902
0.120859
0.137752
0.143037
0.137061
0.121104
0.0980631
0.114966
0.144857
0.168663
0.182784
0.185546
0.175716
0.153655
0.12068
0.0806198
0.0362995
-0.00920677
-0.0528582
-0.0918589
-0.123843
-0.146992
-0.160113
-0.162656
-0.15473
-0.137092
-0.111129
-0.0787859
-0.0424636
-0.00485707
0.0312331
0.0631414
0.0874773
0.102765
0.108399
0.104809
0.0930563
0.0754802
0.0854967
0.107735
0.125816
0.136704
0.139197
0.132124
0.115737
0.0911581
0.0611003
0.0276661
-0.00681987
-0.0400349
-0.0698242
-0.0943574
-0.11223
-0.122529
-0.124854
-0.119325
-0.106566
-0.0876732
-0.0641463
-0.037794
-0.0106031
0.0154063
0.0383511
0.0559749
0.0671866
0.0715343
0.0695056
0.0618853
0.0502695
0.119994
0.150837
0.174682
0.187664
0.188006
0.174187
0.146803
0.107562
0.0606212
0.00917081
-0.0434422
-0.0941001
-0.140208
-0.17993
-0.212291
-0.237164
-0.255124
-0.267244
-0.274841
-0.279185
-0.281259
-0.281585
-0.280165
-0.276511
-0.269802
-0.257798
-0.239834
-0.215582
-0.186057
-0.152191
-0.116391
0.149268
0.186357
0.213389
0.225874
0.221448
0.198666
0.158549
0.103294
0.0388173
-0.0303581
-0.0995542
-0.16447