# vtk DataFile Version 2.0
Func
ASCII
DATASET RECTILINEAR_GRID
DIMENSIONS 31 31 31
X_COORDINATES 31 double
-9.67742
-9.03226
-8.3871
-7.74194
-7.09677
-6.45161
-5.80645
-5.16129
-4.51613
-3.87097
-3.22581
-2.58065
-1.93548
-1.29032
-0.645161
0
0.645161
1.29032
1.93548
2.58065
3.22581
3.87097
4.51613
5.16129
5.80645
6.45161
7.09677
7.74194
8.3871
9.03226
9.67742
Y_COORDINATES 31 double
-9.67742
-9.03226
-8.3871
-7.74194
-7.09677
-6.45161
-5.80645
-5.16129
-4.51613
-3.87097
-3.22581
-2.58065
-1.93548
-1.29032
-0.645161
0
0.645161
1.29032
1.93548
2.58065
3.22581
3.87097
4.51613
5.16129
5.80645
6.45161
7.09677
7.74194
8.3871
9.03226
9.67742
Z_COORDINATES 31 double
-9.67742
-9.03226
-8.3871
-7.74194
-7.09677
-6.45161
-5.80645
-5.16129
-4.51613
-3.87097
-3.22581
-2.58065
-1.93548
-1.29032
-0.645161
0
0.645161
1.29032
1.93548
2.58065
3.22581
3.87097
4.51613
5.16129
5.80645
6.45161
7.09677
7.74194
8.3871
9.03226
9.67742
POINT_DATA 29791
SCALARS data double 1
LOOKUP_TABLE default
-0.00519197
-0.00433036
-0.002639
0.000667349
0.00527024
0.0109434
0.0169657
0.022471
0.02657
0.0285577
0.027889
0.0242702
0.0176885
0.00841322
-0.00304424
-0.0159948
-0.0296484
-0.0431914
-0.0558582
-0.066981
-0.076028
-0.0826208
-0.0865415
-0.0877193
-0.0862217
-0.0818857
-0.0750802
-0.0662117
-0.0559356
-0.0448036
-0.0335703
-0.0106421
-0.0104864
-0.00892895
-0.00504019
0.000744849
0.00808089
0.0158414
0.0227412
0.0274481
0.0289836
0.0266594
0.0201973
0.00975606
-0.00409071
-0.0204435
-0.0381975
-0.0561751
-0.0732495
-0.088446
-0.101002
-0.110399
-0.116361
-0.118826
-0.117909
-0.113857
-0.106537
-0.0965438
-0.0844268
-0.0708668
-0.0565222
-0.0422346
-0.0168417
-0.0182348
-0.0180871
-0.0153307
-0.0105463
-0.00416144
0.00247554
0.00780327
0.0102915
0.00892997
0.00312948
-0.00715557
-0.0214265
-0.0387073
-0.0576936
-0.0769366
-0.0950285
-0.110759
-0.123229
-0.131895
-0.136571
-0.137377
-0.134659
-0.128895
-0.12062
-0.109897
-0.0973653
-0.0836713
-0.0692814
-0.0547129
-0.0406584
-0.0228145
-0.0264328
-0.0288762
-0.0290005
-0.0275074
-0.024791
-0.0222842
-0.0215582
-0.0240366
-0.0304747
-0.0410994
-0.0555112
-0.0727345
-0.0913454
-0.109689
-0.126122
-0.139238
-0.148038
-0.152028
-0.151228
-0.146107
-0.137462
-0.12626
-0.113486
-0.100021
-0.0862493
-0.072763
-0.0599431
-0.0479261
-0.0368003
-0.0268477
-0.0275663
-0.0334406
-0.0388956
-0.0427289
-0.0457181
-0.0481589
-0.0513977
-0.0568195
-0.0655042
-0.0777485
-0.0932484
-0.111046
-0.129646
-0.14721
-0.161839
-0.171866
-0.176101
-0.174
-0.165717
-0.152064
-0.134359
-0.114218
-0.0933204
-0.0731855
-0.0550174
-0.0395388
-0.0271408
-0.0178241
-0.0111689
-0.00666747
-0.00392559
-0.0303223
-0.0378152
-0.0456402
-0.0525571
-0.0593917
-0.066334
-0.0745859
-0.0852839
-0.0991087
-0.115878
-0.134764
-0.154292
-0.172519
-0.187289
-0.196574
-0.198803
-0.193111
-0.179491
-0.158805
-0.132672
-0.10324
-0.0728892
-0.043925
-0.0182998
0.00257355
0.0177135
0.0270434
0.0310423
0.0307132
0.0271945
0.0215594
-0.0303378
-0.0382309
-0.0468205
-0.054908
-0.0633517
-0.0722943
-0.0828354
-0.0959331
-0.111978
-0.130454
-0.150171
-0.169306
-0.185629
-0.196808
-0.200786
-0.196133
-0.182303
-0.159755
-0.129931
-0.0950796
-0.0579658
-0.021507
0.0115924
0.0391522
0.0597187
0.0722164
0.0769419
0.074855
0.0674397
0.0563529
0.0431896
-0.027021
-0.0336399
-0.040798
-0.0473979
-0.0543448
-0.0618439
-0.0710145
-0.0827976
-0.0975074
-0.114536
-0.132578
-0.149691
-0.163547
-0.171766
-0.172316
-0.163878
-0.146102
-0.119715
-0.0864646
-0.0489191
-0.010123
0.0268029
0.0590548
0.0844709
0.10173
0.109864
0.10953
0.102072
0.0892368
0.0729709
0.0550772
-0.0199893
-0.0235884
-0.0271074
-0.0296315
-0.0321512
-0.0350611
-0.0396445
-0.0469987
-0.0575724
-0.0709048
-0.0858055
-0.100415
-0.112461
-0.119603
-0.119835
-0.11186
-0.0953466
-0.0710364
-0.0406763
-0.00680165
0.0276176
0.059592
0.0865052
0.106432
0.118315
0.121477
0.116859
0.106032
0.0907289
0.0729153
0.0542147
-0.00965696
-0.00886074
-0.00713064
-0.00380771
-1.81208e-05
0.00354613
0.00532839
0.0039478
-0.00131248
-0.0102963
-0.0220756
-0.0349985
-0.046933
-0.055603
-0.0589939
-0.0557245
-0.0453113
-0.0282796
-0.00610559
0.0189967
0.0444193
0.0675644
0.0862141
0.0988266
0.104682
0.103518
0.0964552
0.0851071
0.0709289
0.05565
0.0403364
0.00229892
0.00800392
0.0154427
0.0249932
0.0353562
0.0454982
0.0535533
0.0578201
0.0572888
0.0517674
0.0418787
0.0290332
0.0152049
0.00261032
-0.00668898
-0.0111553
-0.0100437
-0.00352411
0.0073604
0.0208896
0.0349866
0.0475934
0.0570058
0.0621363
0.062618
0.0586842
0.0515249
0.0426444
0.033016
0.023949
0.0156481
0.0126609
0.0224852
0.0345727
0.0490855
0.0645644
0.0796813
0.0923198
0.100515
0.10302
0.0993431
0.089835
0.0756818
0.0587026
0.0410476
0.0248164
0.0116987
0.00270638
-0.00195608
-0.00286596
-0.00120519
0.00153025
0.00387068
0.00466323
0.00329671
-0.000243894
-0.00518426
-0.0103279
-0.0143738
-0.0169349
-0.0172172
-0.0160569
0.0170444
0.0286725
0.0427713
0.0594687
0.0772369
0.0946021
0.109337
0.119337
0.123181
0.120163
0.110404
0.0948706
0.0751929
0.0533873
0.031501
0.0112727
-0.00612197
-0.0201976
-0.0311414
-0.0396503
-0.0466699
-0.0530926
-0.0595156
-0.0660604
-0.0723739
-0.0770988
-0.0790337
-0.0770934
-0.0714781
-0.0619215
-0.0503353
0.011128
0.0209145
0.0331881
0.0483235
0.0649011
0.0815319
0.096059
0.106382
0.11091
0.108769
0.0998464
0.0848258
0.0650368
0.042212
0.018169
-0.00549126
-0.0276126
-0.047593
-0.0653649
-0.0812394
-0.0956724
-0.109004
-0.121269
-0.132066
-0.140625
-0.144959
-0.143805
-0.136231
-0.122939
-0.104137
-0.0827077
-0.0074994
-0.0037856
0.00248197
0.0122438
0.0244218
0.0379728
0.0509828
0.0614677
0.0675792
0.06825
0.0630452
0.0522273
0.0366414
0.0175227
-0.00376593
-0.0259839
-0.0482
-0.0698719
-0.0908151
-0.111051
-0.130599
-0.149263
-0.166496
-0.181331
-0.192508
-0.197385
-0.194549
-0.183119
-0.164147
-0.138224
-0.108971
-0.0375699
-0.0435295
-0.0465895
-0.0449815
-0.0392196
-0.0297798
-0.0182216
-0.0063634
0.00353324
0.0101164
0.0124878
0.0103103
0.00374327
-0.00668493
-0.0202701
-0.0363176
-0.054282
-0.0738106
-0.0946985
-0.116742
-0.139564
-0.162442
-0.184245
-0.203416
-0.218167
-0.225238
-0.222992
-0.21049
-0.188959
-0.159247
-0.125396
-0.0733697
-0.0906145
-0.104238
-0.111544
-0.112349
-0.106455
-0.0950515
-0.0798106
-0.0635506
-0.0480164
-0.0346958
-0.0246607
-0.0185694
-0.0167188
-0.0191634
-0.0258337
-0.0366298
-0.0514334
-0.0700544
-0.0920986
-0.116829
-0.143046
-0.169082
-0.192845
-0.21206
-0.223002
-0.223794
-0.21337
-0.192945
-0.163489
-0.129096
-0.105663
-0.132824
-0.155373
-0.169806
-0.175277
-0.170966
-0.157773
-0.137298
-0.112948
-0.086912
-0.0612964
-0.0379134
-0.0182179
-0.00328699
0.00612856
0.00954322
0.00667696
-0.00253841
-0.0179098
-0.038875
-0.0644055
-0.0929383
-0.122413
-0.150368
-0.174197
-0.189996
-0.195719
-0.190164
-0.174374
-0.149285
-0.11868
-0.124336
-0.156936
-0.183945
-0.201409
-0.208027
-0.202578
-0.185822
-0.159375
-0.127078
-0.0914992
-0.0552389
-0.0206743
0.0101552
0.0356243
0.0545183
0.0660083
0.0696066
0.0651728
0.0529464
0.0336187
0.00839005
-0.0210029
-0.0523528
-0.0830966
-0.110567
-0.131062
-0.142513
-0.143642
-0.13519
-0.117916
-0.0949853
-0.121962
-0.15339
-0.178618
-0.193757
-0.197401
-0.18825
-0.167095
-0.135618
-0.0977568
-0.0562538
-0.0139182
0.0266474
0.0631901
0.0939093
0.117472
0.132999
0.140012
0.13843
0.128568
0.111174
0.0874541
0.0590709
0.0280792
-0.00318173
-0.0322983
-0.0561627
-0.0728686
-0.0811654
-0.081413
-0.0740714
-0.0614889
-0.0969322
-0.120323
-0.137577
-0.1454
-0.142664
-0.128331
-0.103336
-0.0694152
-0.0301377
0.0118817
0.0540069
0.0938333
0.129327
0.158918
0.181507
0.196436
0.203423
0.202526
0.194124
0.178915
0.15792
0.132487
0.10424
0.0750079
0.0466802
0.0214847
0.00100785
-0.0136277
-0.0223793
-0.0253381
-0.0239716
-0.0547146
-0.0651519
-0.070292
-0.0678382
-0.0572331
-0.0379393
-0.0110557
0.0217353
0.0576814
0.0946262
0.130479
0.163416
0.19198
0.215143
0.232273
0.243086
0.247563
0.245897
0.23845
0.225744
0.208462
0.187462
0.163768
0.138549
0.11304
0.088513
0.0661675
0.0469455
0.0312613
0.0193942
0.0106841
-0.00655164
-0.00276584
0.00483089
0.0173863
0.0347914
0.0570254
0.08293
0.111046
0.13975
0.167602
0.193309
0.21585
0.234515
0.248915
0.258919
0.264581
0.266058
0.263557
0.257296
0.247502
0.234433
0.218414
0.199872
0.179358
0.157527
0.134871
0.112267
0.0905061
0.0703011
0.0522372
0.0362748
0.0341955
0.0493212
0.0664554
0.085736
0.106525
0.128386
0.150304
0.171239
0.190774
0.208296
0.223368
0.235765
0.24545
0.252531
0.257186
0.259584
0.259832
0.257944
0.253843
0.247382
0.238401
0.226794
0.212568
0.195893
0.177102
0.156303
0.13424
0.111663
0.0894885
0.0684959
0.0490152
0.0567033
0.0770824
0.097763
0.118249
0.137695
0.155541
0.171148
0.184065
0.194901
0.203812
0.211073
0.217032
0.22204
0.226375
0.230175
0.23339
0.235783
0.236953
0.236392
0.233562
0.227983
0.219324
0.207469
0.192558
0.174973
0.154923
0.133282
0.110915
0.088844
0.0679152
0.0485765
0.0563763
0.074777
0.0922113
0.108034
0.121583
0.132508
0.140741
0.146496
0.15105
0.155122
0.159416
0.164505
0.170742
0.178182
0.18655
0.195251
0.203448
0.210156
0.214373
0.21521
0.212021
0.204493
0.192702
0.177107
0.158488
0.137595
0.115663
0.0938246
0.0731227
0.054361
0.0378928
0.0369542
0.0476314
0.0567095
0.0637929
0.068702
0.071544
0.0728733
0.0735202
0.0749963
0.0783114
0.0842696
0.0933362
0.10554
0.120427
0.137077
0.154191
0.170238
0.183634
0.192931
0.197002
0.195186
0.187384
0.174065
0.156213
0.135193
0.112497
0.0898308
0.0686467
0.0499397
0.0343978
0.0222042
0.00796888
0.00846896
0.00729346
0.00455309
0.000656317
-0.00375909
-0.00761972
-0.00965874
-0.00849328
-0.00309137
0.00720018
0.0225234
0.042434
0.0658908
0.0913314
0.11682
0.140254
0.159596
0.173112
0.17958
0.178445
0.169891
0.154813
0.134705
0.111471
0.0872616
0.0641763
0.0439252
0.0274015
0.0151562
0.00713151
-0.0178155
-0.0257759
-0.0350799
-0.0451767
-0.0551938
-0.0641712
-0.0707187
-0.0734242
-0.0712604
-0.063367
-0.0493562
-0.029424
-0.00439465
0.0243026
0.0547451
0.0846968
0.111834
0.133995
0.14942
0.156963
0.156224
0.147608
0.132259
0.111926
0.0887412
0.065135
0.0433254
0.025053
0.0110679
0.0017783
-0.00313286
-0.0308948
-0.0428095
-0.0556143
-0.0685216
-0.0805262
-0.0905112
-0.0972559
-0.0994536
-0.096468
-0.0876967
-0.0729953
-0.0527547
-0.0279213
4.71324e-05
0.0292939
0.0577361
0.0832666
0.103974
0.118352
0.125467
0.125073
0.117641
0.104293
0.0866647
0.0667019
0.0466211
0.0283643
0.0135035
0.00257512
-0.00412677
-0.00706269
-0.0296779
-0.0405915
-0.0520317
-0.0631963
-0.0732848
-0.0813426
-0.086459
-0.0877468
-0.0848647
-0.0774658
-0.0655516
-0.0495148
-0.0301456
-0.00858806
0.013749
0.0353197
0.0545867
0.0701784
0.0810341
0.0865212
0.0865074
0.0813772
0.0719764
0.0595131
0.0454015
0.0312315
0.0184241
0.00807648
0.000550683
-0.00388622
-0.00579398
-0.0126163
-0.0117799
-0.00851648
-0.00162881
0.0084725
0.0213964
0.0358491
0.0502265
0.062736
0.0719562
0.0767469
0.0764149
0.0707725
0.0601431
0.0452903
0.0273011
0.00744658
-0.012957
-0.0326719
-0.0506249
-0.0659686
-0.0781041
-0.086679
-0.091561
-0.0928106
-0.0901821
-0.0842017
-0.0753976
-0.0644876
-0.0522091
-0.0394171
-0.0233595
-0.023862
-0.020611
-0.0121
0.00110268
0.0183742
0.0377479
0.0568838
0.0731036
0.0844173
0.0893273
0.0870504
0.0775782
0.0616478
0.0405952
0.016146
-0.0098192
-0.0354803
-0.0592538
-0.079896
-0.0965583
-0.108777
-0.116418
-0.119603
-0.118634
-0.113288
-0.104421
-0.0927337
-0.0788616
-0.0635929
-0.0479055
-0.0355944
-0.0388134
-0.0376421
-0.0302784
-0.0174796
-3.76468e-05
0.0196898
0.038819
0.054159
0.0635155
0.0654009
0.0592715
0.0455559
0.0255602
0.00122572
-0.0251822
-0.0513982
-0.0754319
-0.0957662
-0.111446
-0.12208
-0.127764
-0.128936
-0.126224
-0.12032
-0.111263
-0.0999274
-0.0870989
-0.0730746
-0.0583975
-0.0438234
-0.0476696
-0.0547633
-0.0576723
-0.0543874
-0.0458256
-0.0327455
-0.0177242
-0.00378097
0.0058566
0.00923486
0.00528604
-0.00595774
-0.0234081
-0.0451056
-0.0685683
-0.0912007
-0.110686
-0.125291
-0.134045
-0.136777
-0.134023
-0.126833
-0.116524
-0.104424
-0.0916924
-0.0787907
-0.0664462
-0.0550133
-0.0443695
-0.03446
-0.0254771
-0.0577715
-0.0689067
-0.0767157
-0.0790617
-0.0769613
-0.0710477
-0.0638404
-0.0581852
-0.0569559
-0.0615304
-0.0722726
-0.088377
-0.108007
-0.128583
-0.147227
-0.161264
-0.168643
-0.168247
-0.160016
-0.1449
-0.124642
-0.101457
-0.0776567
-0.055309
-0.0359895
-0.0205881
-0.00944477
-0.00232474
0.00158301
0.00315501
0.00308079
-0.0644834
-0.0787088
-0.0905774
-0.0978693
-0.101673
-0.102481
-0.102655
-0.104749
-0.111155
-0.122606
-0.138735
-0.157991
-0.17787
-0.195297
-0.207164
-0.210884
-0.204841
-0.188666
-0.163301
-0.130853
-0.0942483
-0.0567823
-0.0216406
0.00852808
0.0318973
0.0472922
0.0549253
0.0557509
0.0512797
0.0432331
0.0331642
-0.0664161
-0.0818338
-0.095445
-0.105064
-0.111843
-0.116217
-0.120424
-0.126791
-0.137324
-0.152273
-0.170732
-0.190612
-0.208951
-0.222367
-0.227666
-0.222432
-0.205485
-0.177126
-0.139136
-0.094539
-0.047157
-0.0010492
0.0400457
0.0731901
0.0965476
0.108914
0.111124
0.104841
0.0921407
0.0754249
0.0568477
-0.0626163
-0.0766255
-0.0887304
-0.0968781
-0.102316
-0.105578
-0.108931
-0.114669
-0.124666
-0.138999
-0.156535
-0.174949
-0.191073
-0.201402
-0.202738
-0.192803
-0.170702
-0.13714
-0.0943782
-0.0459317
0.00394673
0.0508932
0.0910338
0.121485
0.140645
0.147576
0.143693
0.131219
0.112533
0.0903997
0.0671361
-0.0524101
-0.0622646
-0.0695391
-0.0724545
-0.0724136
-0.0702292
-0.0683759
-0.0693305
-0.0750823
-0.0858305
-0.100515
-0.116838
-0.131633
-0.14139
-0.142918
-0.133973
-0.113717
-0.0829274
-0.0439288
-0.000260005
0.0438762
0.0842655
0.117288
0.140412
0.152448
0.15298
0.143866
0.127665
0.106731
0.0838252
0.0609237
-0.0362655
-0.0397058
-0.0396164
-0.0346403
-0.026407
-0.0161494
-0.00669152
-0.000840919
-0.000833852
-0.00718105
-0.0190714
-0.0343887
-0.0500741
-0.0626548
-0.0689091
-0.0664948
-0.0544139
-0.0332218
-0.00495482
0.0272055
0.0594847
0.0881603
0.110144
0.123446
0.127375
0.122206
0.110059
0.0935781
0.0747882
0.0561128
0.0387268
-0.0164292
-0.0123706
-0.00394837
0.00967646
0.0265998
0.0451196
0.0620199
0.0741382
0.0790121
0.0757912
0.0650065
0.0485636
0.0293958
0.0109452
-0.00349479
-0.0114023
-0.0114911
-0.0039245
0.00974792
0.0269182
0.0444509
0.0593
0.0690485
0.0723278
0.0689597
0.0599924
0.0476391
0.0344266
0.0218252
0.0116879
0.00405068
0.00260739
0.013446
0.0290803
0.0498571
0.0736222
0.0982783
0.120304
0.136286
0.143662
0.141336
0.129629
0.110273
0.0860849
0.060463
0.0367486
0.0176195
0.00463772
-0.00196255
-0.00321924
-0.00112483
0.00187521
0.00346045
0.00192245
-0.00346938
-0.0123943
-0.0229925
-0.03306
-0.0402989
-0.0438991
-0.0426895
-0.0379418
0.0144964
0.0292334
0.0487453
0.0730899
0.099996
0.127173
0.150992
0.167984
0.175601
0.172635
0.159264
0.137059
0.108669
0.0773495
0.0463525
0.0183574
-0.00495312
-0.0230869
-0.0366827
-0.0471976
-0.0564347
-0.0660089
-0.0769203
-0.0892494
-0.102161
-0.112948
-0.119425
-0.119529
-0.113093
-0.0996316
-0.0817198
0.0126538
0.0264334
0.0447199
0.0676595
0.0931139
0.118896
0.141525
0.157695
0.164873
0.161796
0.148482
0.126242
0.097394
0.064827
0.0314519
-0.00031327
-0.0289167
-0.0538284
-0.0754636
-0.0948671
-0.11327
-0.131605
-0.150147
-0.168281
-0.184589
-0.195474
-0.198691
-0.192332
-0.176759
-0.152097
-0.122065
-0.00715564
-0.00022302
0.0110619
0.0274119
0.0471458
0.0685055
0.0884058
0.103867
0.1122
0.112025
0.103049
0.0860984
0.0628794
0.0356083
0.00653691
-0.0224781
-0.0502811
-0.0765202
-0.101544
-0.126083
-0.150838
-0.176053
-0.201236
-0.225004
-0.245267
-0.257516
-0.259332
-0.248839
-0.226751
-0.193682
-0.154211
-0.0441923
-0.0493998
-0.0499576
-0.0441433
-0.0328691
-0.0171978
0.000343771
0.0171626
0.0301185
0.0375367
0.0385649
0.0332562
0.022396
0.00722011
-0.0109581
-0.0310804
-0.0525744
-0.0753995
-0.0999195
-0.126587
-0.155579
-0.186436
-0.217868
-0.247693
-0.273097
-0.288737
-0.291931
-0.280718
-0.255972
-0.218649
-0.173798
-0.0914025
-0.111547
-0.126148
-0.132225
-0.129735
-0.118917
-0.101716
-0.0803958
-0.0588421
-0.0392382
-0.0232312
-0.0117786
-0.00523216
-0.00351367
-0.00637798
-0.0136441
-0.0253587
-0.0417962
-0.0633221
-0.0901009
-0.121789
-0.157253
-0.194461
-0.230504
-0.261927
-0.282796
-0.290163
-0.281926
-0.258937
-0.222322
-0.177155
-0.13642
-0.170328
-0.197349
-0.213311
-0.217246
-0.208636
-0.188965
-0.160321
-0.127467
-0.0932302
-0.060152
-0.0302553
-0.00502873
0.014503
0.0276186
0.0337543
0.0323855
0.0230474
0.00545801
-0.0202375
-0.0532296
-0.0918429
-0.1335
-0.174809
-0.211918
-0.238753
-0.252209
-0.250075
-0.233027
-0.202176
-0.162164
-0.16506
-0.207251
-0.241168
-0.261864
-0.267726
-0.257724
-0.233119
-0.196011
-0.151891
-0.104187
-0.0562063
-0.0108307
0.0295883
0.0632441
0.0887891
0.10524
0.111878
0.108253
0.0942725
0.0703759
0.0376977
-0.00180051
-0.0453416
-0.0894505
-0.130286
-0.162218
-0.182202
-0.188033
-0.180099
-0.159303
-0.12946
-0.166286
-0.208145
-0.240827
-0.259287
-0.261734
-0.246998
-0.216381
-0.172144
-0.120049
-0.0638733
-0.00732242
0.0463196
0.0943444
0.134685
0.165861
0.186899
0.197216
0.196586
0.185173
0.163626
0.13318
0.095736
0.0538397
0.0105757
-0.0306952
-0.0653816
-0.0907609
-0.10479
-0.107507
-0.0994424
-0.083307
-0.136731
-0.168999
-0.192111
-0.201679
-0.196252
-0.174903
-0.139172
-0.0915206
-0.0373179
0.0197291
0.0760451
0.12853
0.174721
0.212859
0.241829
0.261052
0.270341
0.269817
0.259879
0.241234
0.214955
0.182532
0.14588
0.107282
0.0692288
0.0348509
0.00633385
-0.0145828
-0.0275727
-0.0326895
-0.0314488
-0.0827755
-0.0985401
-0.106276
-0.102854
-0.0875698
-0.0600006
-0.0219729
0.0239616
0.0735072
0.123502
0.171038
0.213742
0.249905
0.278507
0.299119
0.31176
0.31672
0.314435
0.305417
0.29024
0.269579
0.244272
0.215368
0.184141
0.152043
0.120654
0.0915406
0.0660742
0.0449178
0.0285041
0.0164062
-0.0190499
-0.0161543
-0.00730392
0.00910374
0.0328874
0.0639042
0.100183
0.139327
0.17861
0.215806
0.249053
0.277037
0.299045
0.314934
0.32499
0.329752
0.329832
0.325784
0.318021
0.306798
0.292264
0.274545
0.253845
0.230524
0.205125
0.17799
0.15017
0.122725
0.0965907
0.0725998
0.0511284
0.036414
0.0545525
0.0760717
0.101199
0.129038
0.159041
0.189395
0.218184
0.244405
0.266964
0.285158
0.298744
0.307909
0.31318
0.315267
0.314882
0.312605
0.308778
0.303468
0.296483
0.287453
0.275948
0.261608
0.244253
0.223944
0.200419
0.174506
0.14712
0.119386
0.092376
0.0668764
0.0685503
0.094095
0.120523
0.147188
0.1729
0.197031
0.218297
0.235566
0.249344
0.25962
0.266677
0.271054
0.273442
0.274569
0.275055
0.275285
0.275352
0.275035
0.273839
0.27108
0.266009
0.257952
0.24644
0.231301
0.212688
0.190531
0.16581
0.139536
0.112935
0.0871284
0.06291
0.0704965
0.0939042
0.116272
0.136756
0.154387
0.168827
0.179631
0.186649
0.191395
0.194684
0.197409
0.200415
0.204363
0.209621
0.216175
0.223595
0.231097
0.23763
0.242022
0.243144
0.240085
0.232288
0.21965
0.202541
0.18176
0.158114
0.133094
0.108034
0.0841752
0.0625246
0.0435542
0.0466456
0.0602267
0.0717074
0.0806225
0.0866322
0.0899427
0.0910676
0.0908234
0.0911265
0.093243
0.0982327
0.106784
0.119075
0.134704
0.152686
0.171535
0.189436
0.204464
0.214818
0.219069
0.216356
0.206516
0.19011
0.168367
0.143017
0.116078
0.0897176
0.0656946
0.0451873
0.0289833
0.0171212
0.00925597
0.00952999
0.00745801
0.0032957
-0.00251218
-0.00913866
-0.0152422
-0.019253
-0.0193784
-0.0142705
-0.00305444
0.0145021
0.0378832
0.0658031
0.0962953
0.126897
0.154918
0.177742
0.193145
0.19958
0.196384
0.183879
0.163336
0.136824
0.106945
0.0768148
0.049193
0.0262086
0.00891291
-0.00214646
-0.00741706
-0.0244035
-0.0352861
-0.0481282
-0.0620586
-0.076013
-0.0888275
-0.0986126
-0.103463
-0.102042
-0.0931954
-0.0763972
-0.0518912
-0.0207553
0.015124
0.0531996
0.0905064
0.123966
0.150727
0.168493
0.175813
0.172271
0.158553
0.136359
0.108205
0.0771145
0.0467125
0.0199804
-0.000895214
-0.0150211
-0.0220726
-0.0228783
-0.0417604
-0.0579335
-0.0754689
-0.0931822
-0.109801
-0.123961
-0.133954
-0.137922
-0.135039
-0.124477
-0.106034
-0.0802334
-0.0483572
-0.0123879
0.0251475
0.0614172
0.0935658
0.119021
0.135786
0.142678
0.139486
0.127008
0.106944
0.0817092
0.0541238
0.0275613
0.00466549
-0.0125049
-0.0233504
-0.027679
-0.0264697
-0.0403324
-0.0552231
-0.0709657
-0.0864184
-0.10051
-0.112027
-0.119669
-0.122156
-0.119024
-0.10978
-0.0944154
-0.073469
-0.0480324
-0.0196945
0.00958565
0.0376609
0.0624041
0.0819322
0.0948136
0.100238
0.0981185
0.08911
0.0745247
0.0561829
0.0361811
0.0169772
0.000570133
-0.0115611
-0.0190464
-0.0216814
-0.0204706
-0.0224829
-0.0217502
-0.0163166
-0.0045121
0.0132207
0.0363151
0.0628264
0.0902546
0.115661
0.1367
0.151439
0.158611
0.157716
0.149037
0.133532
0.112666
0.0881902
0.0619398
0.0356433
0.0107938
-0.0114364
-0.0302258
-0.0450884
-0.0558277
-0.0624825
-0.0648453
-0.0634106
-0.0588357
-0.0517096
-0.042783
-0.0328325
-0.0399686
-0.0412705
-0.0354618
-0.0203389
0.00347828
0.0350459
0.0714411
0.109031
0.143402
0.171228
0.189897
0.197855
0.194719
0.18125
0.159147
0.130735
0.0986184
0.0653537
0.0331848
0.00388182
-0.0213377
-0.041795
-0.0572627
-0.0678456
-0.0738675
-0.0751998
-0.072627
-0.0669931
-0.0587128
-0.0485249
-0.0372817
-0.0599964
-0.0653183
-0.0620635
-0.0475231
-0.0225183
0.0117198
0.0516631
0.0927684
0.129633
0.158424
0.176329
0.181938
0.175327
0.157947
0.132288
0.101426
0.0685386
0.0364914
0.00753068
-0.0168652
-0.0360005
-0.049856
-0.0588869
-0.0638018
-0.0653742
-0.0637808
-0.0597838
-0.0542225
-0.0471051
-0.038854
-0.0299944
-0.0801188
-0.0912191
-0.0934921
-0.0838299
-0.0632332
-0.0329202
0.00315837
0.0401081
0.0721824
0.0956452
0.10804
0.108561
0.0980524
0.0787838
0.0539668
0.0271673
0.00171684
-0.0197511
-0.0355954
-0.0452502
-0.0491211
-0.0483332
-0.044388
-0.0388176
-0.0329194
-0.0272957
-0.0225021
-0.0187849
-0.0156576
-0.0128161
-0.0101593
-0.0974838
-0.114758
-0.123924
-0.121638
-0.109014
-0.0871466
-0.0600219
-0.0324505
-0.00996473
0.00427559
0.00858412
0.00305584
-0.0105497
-0.0291632
-0.0490272
-0.0663986
-0.0782019
-0.0824968
-0.0787129
-0.0676232
-0.0510835
-0.0316084
-0.0118775
0.00573232
0.0194795
0.0284034
0.0324187
0.032097
0.0286634
0.0233654
0.0172439
-0.109935
-0.132182
-0.147347
-0.151933
-0.147144
-0.133924
-0.116141
-0.0983323
-0.0855806
-0.0803246
-0.0833935
-0.0937817
-0.108884
-0.124973
-0.137945
-0.144106
-0.140857
-0.12714
-0.103588
-0.0723675
-0.0367603
-0.000567629
0.0325194
0.0594863
0.0783715
0.0880846
0.0892015
0.0832622
0.0722186
0.0582576
0.0432819
-0.115314
-0.140004
-0.158313
-0.166755
-0.166628
-0.158815
-0.147077
-0.135694
-0.129335
-0.129848
-0.137375
-0.150209
-0.165125
-0.177958
-0.184443
-0.181053
-0.165703
-0.138151
-0.100064
-0.0547426
-0.00656101
0.0397705
0.0799345
0.110639
0.13
0.137135
0.133367
0.121172
0.103077
0.0819969
0.0603347
-0.112328
-0.136002
-0.153348
-0.16104
-0.160513
-0.152781
-0.14164
-0.131306
-0.126259
-0.12807
-0.136529
-0.149553
-0.16358
-0.174228
-0.177179
-0.169061
-0.148151
-0.114739
-0.0711287
-0.0212709
0.029902
0.0773026
0.116477
0.144259
0.159134
0.16077
0.151211
0.133661
0.110947
0.0863463
0.0622464
-0.0999589
-0.118923
-0.131042
-0.13335
-0.127508
-0.114865
-0.0994388
-0.0855807
-0.0777976
-0.0776812
-0.0849723
-0.0974905
-0.111569
-0.122745
-0.126681
-0.120062
-0.10129
-0.0708339
-0.03118
0.0135889
0.0585173
0.0986488
0.129828
0.149349
0.156259
0.151043
0.13633
0.11576
0.0921351
0.0686907
0.0472539
-0.0785063
-0.0895824
-0.0930793
-0.0866254
-0.0721968
-0.0516433
-0.0293364
-0.00988784
0.00210526
0.00487013
-0.00144083
-0.0146939
-0.0312203
-0.0465258
-0.0562211
-0.0569219
-0.046942
-0.0266241
0.00172779
0.0342998
0.0665122
0.093899
0.112892
0.12143
0.119205
0.107652
0.0898029
0.0694223
0.0490024
0.0313928
0.0174072
-0.050326
-0.0516398
-0.044885
-0.02846
-0.00472761
0.0239099
0.0527091
0.0768193
0.0916776
0.0953619
0.0879385
0.0715025
0.0497279
0.0271524
0.00824975
-0.00346013
-0.00609223
0.000287146
0.013739
0.0309184
0.0478172
0.0606263
0.0664827
0.0640305
0.0535866
0.0375594
0.0192249
0.0022292
-0.0114418
-0.0195384
-0.0225473
-0.0205594
-0.0122914
0.00396712
0.0290129
0.0601082
0.0943887
0.12687
0.152624
0.167362
0.169185
0.158204
0.136555
0.10795
0.0769556
0.0480895
0.0249518
0.00957635
0.00213804
0.00104877
0.0034378
0.00588528
0.00525681
-0.000598296
-0.0123445
-0.0290774
-0.0474405
-0.0640009
-0.0753568
-0.0801002
-0.0766589
-0.066916
0.00303414
0.0181375
0.040561
0.0704857
0.104942
0.140836
0.173203
0.197272
0.209241
0.207415
0.192062
0.16539
0.131093
0.0936492
0.0574462
0.0259652
0.00118654
-0.0166576
-0.0289551
-0.0382139
-0.0473371
-0.0588236
-0.0741266
-0.09322
-0.114606
-0.133989
-0.147769
-0.152792
-0.148184
-0.133022
-0.110513
0.0117699
0.0284481
0.051482
0.0808662
0.113689
0.146957
0.176054
0.196597
0.205286
0.200699
0.183226
0.15502
0.119551
0.0809325
0.0431183
0.0091596
-0.0193063
-0.0422351
-0.0610015
-0.0778726
-0.0952957
-0.115143
-0.138137
-0.163506
-0.189081
-0.209597
-0.221211
-0.220923
-0.208272
-0.182897
-0.149127
-0.000913275
0.0104753
0.027454
0.0504261
0.0769297
0.104434
0.128974
0.146693
0.154544
0.151251
0.137096
0.113866
0.0844416
0.0521899
0.0202546
-0.0090761
-0.0347827
-0.0572103
-0.0778429
-0.0987564
-0.121931
-0.148554
-0.178537
-0.210258
-0.240776
-0.263839
-0.275265
-0.272088
-0.254101
-0.221402
-0.17913
-0.0360523
-0.0366381
-0.0317352
-0.0199299
-0.00283975
0.0177604
0.0387481
0.0567899
0.0686261
0.0728232
0.0691756
0.0586883
0.0432312
0.0250402
0.00612856
-0.0122176
-0.0297491
-0.0472695
-0.06637
-0.0888827
-0.11624
-0.148862
-0.185767
-0.224431
-0.261094
-0.28861
-0.302437
-0.299547
-0.279834
-0.243741
-0.196827
-0.0870547
-0.103877
-0.114431
-0.115884
-0.108747
-0.0938969
-0.073608
-0.050836
-0.0295664
-0.0117565
0.00150859
0.0100787
0.0145001
0.0156446
0.0142615
0.0105993
0.00418323
-0.00614513
-0.0219527
-0.0447037
-0.0751952
-0.113046
-0.156415
-0.201964
-0.245233
-0.278496
-0.296955
-0.297498
-0.280003
-0.245121
-0.198376
-0.14032
-0.173311
-0.198526
-0.211669
-0.212136
-0.199961
-0.17677
-0.145381
-0.110844
-0.0759185
-0.0427991
-0.0129455
0.0128094
0.0340231
0.0503277
0.0611553
0.0655662
0.0623041
0.0500382
0.0277991
-0.00456068
-0.0459662
-0.0939371
-0.144625
-0.193215
-0.231969
-0.256086
-0.262454
-0.25084
-0.221943
-0.180762
-0.178999
-0.223061
-0.257611
-0.27727
-0.28061
-0.267077
-0.238001
-0.196315
-0.148117
-0.0970201
-0.0462679
0.00154492
0.0444885
0.0811795
0.110563
0.1317
0.143597
0.145234
0.135729
0.11466
0.0824144
0.0404777
-0.00844765
-0.0605137
-0.11109
-0.153181
-0.18235
-0.195644
-0.192665
-0.173965
-0.143565
-0.188821
-0.23488
-0.270128
-0.288841
-0.289292
-0.270724
-0.234572
-0.184059
-0.125898
-0.064318
-0.00323368
0.0541225
0.105302
0.148597
0.182876
0.207371
0.221482
0.224724
0.216788
0.19774
0.168249
0.129803
0.0847909
0.0364579
-0.0113579
-0.0531698
-0.0852872
-0.105108
-0.112043
-0.106305
-0.0906064
-0.16378
-0.201448
-0.228037
-0.238354
-0.230988
-0.205368
-0.16335
-0.108465
-0.0472903
0.015804
0.0768451
0.132648
0.180952
0.220408
0.250395
0.270792
0.281711
0.283355
0.275974
0.25994
0.235888
0.204874
0.168483
0.128846
0.0885212
0.0509545
0.0188116
-0.00581624
-0.0221385
-0.0299019
-0.0303809
-0.109141
-0.130138
-0.141108
-0.13814
-0.120629
-0.0884632
-0.0440298
0.00900857
0.0650493
0.120169
0.170993
0.215043
0.250859
0.277954
0.296598
0.30753
0.311644
0.30977
0.302539
0.290377
0.27359
0.252505
0.227623
0.199729
0.169916
0.139504
0.110066
0.0831288
0.0596638
0.0404173
0.0254262
-0.0402856
-0.0413483
-0.0346334
-0.017898
0.00846215
0.0440413
0.0860804
0.13112
0.175207
0.215382
0.249363
0.275804
0.294344
0.305515
0.310477
0.310693
0.307603
0.302363
0.295688
0.287801
0.278507
0.267348
0.253799
0.237456
0.218175
0.195593
0.170401
0.143646
0.116441
0.0899225
0.0650694
0.0225614
0.0384958
0.0592505
0.0854905
0.115998
0.150012
0.184808
0.217543
0.246214
0.269121
0.285267
0.294488
0.297417
0.295342
0.289922
0.282872
0.275673
0.269355
0.264357
0.260513
0.257134
0.253189
0.247523
0.239081
0.227081
0.210374
0.189216
0.164397
0.13711
0.108679
0.0804917
0.0616644
0.0865207
0.113202
0.141314
0.169296
0.196367
0.22035
0.239401
0.253322
0.261681
0.26461
0.262815
0.257462
0.250009
0.241958
0.234608
0.228872
0.225156
0.223318
0.222715
0.222339
0.220998
0.217525
0.210967
0.200707
0.185904
0.166946
0.144668
0.120273
0.0950243
0.0701611
0.0680857
0.0915633
0.114448
0.136027
0.155
0.170944
0.182697
0.189638
0.192875
0.192988
0.19083
0.187437
0.183872
0.181074
0.179695
0.179984
0.181754
0.18441
0.187039
0.188563
0.187912
0.184207
0.176899
0.165864
0.151409
0.133958
0.114549
0.0943539
0.0745182
0.0560259
0.0395083
0.0455909
0.0591675
0.0706845
0.0797829
0.0859043
0.0892338
0.0898484
0.0883296
0.0864166
0.0852856
0.0860155
0.0894333
0.0959624
0.105525
0.117494
0.130737
0.143745
0.15482
0.162305
0.164824
0.1615
0.152099
0.137086
0.117586
0.0952333
0.0721799
0.0503827
0.0314956
0.0165428
0.00610845
5.32621e-05
0.00700486
0.00655503
0.00354924
-0.00162049
-0.00857702
-0.0164576
-0.0240497
-0.0298262
-0.0320272
-0.0293021
-0.0207555
-0.00611461
0.0141543
0.0388145
0.0659369
0.0930808
0.117564
0.136781
0.14853
0.151328
0.144635
0.128956
0.105806
0.0775404
0.0470623
0.0181189
-0.00647884
-0.0246236
-0.0354616
-0.0387967
-0.0355659
-0.0286079
-0.0409919
-0.0556325
-0.0714995
-0.0874549
-0.102273
-0.11394
-0.120472
-0.120501
-0.112831
-0.0969405
-0.0731301
-0.0425893
-0.00736975
0.0297773
0.0656675
0.0970204
0.120836
0.134759
0.13741
0.128585
0.109326
0.0818045
0.0490855
0.0147501
-0.0166298
-0.0418266
-0.0586458
-0.0663679
-0.0650959
-0.0563021
-0.0468851
-0.0649173
-0.0846061
-0.104567
-0.123407
-0.139686
-0.151464
-0.156749
-0.154667
-0.14434
-0.125594
-0.0990605
-0.066211
-0.0292903
0.00886533
0.0451041
0.0762816
0.099614
0.113009
0.115348
0.106656
0.0881263
0.0619951
0.0312883
-0.000546093
-0.0291594
-0.0516177
-0.0657269
-0.0711015
-0.0679402
-0.0578807
-0.0450425
-0.0616166
-0.0792791
-0.0967126
-0.112718
-0.125995
-0.135023
-0.138403
-0.135627
-0.126161
-0.110029
-0.0878741
-0.0609717
-0.031157
-0.000675541
0.028032
0.0525743
0.0708737
0.0814072
0.0834076
0.0769762
0.0630965
0.0435186
0.020569
-0.0031401
-0.0244058
-0.0409156
-0.0510505
-0.054655
-0.0517999
-0.0440383
-0.0324838
-0.0317136
-0.0236934