# vtk DataFile Version 2.0
Func
ASCII
DATASET RECTILINEAR_GRID
DIMENSIONS 31 31 31
X_COORDINATES 31 double
-9.67742
-9.03226
-8.3871
-7.74194
-7.09677
-6.45161
-5.80645
-5.16129
-4.51613
-3.87097
-3.22581
-2.58065
-1.93548
-1.29032
-0.645161
0
0.645161
1.29032
1.93548
2.58065
3.22581
3.87097
4.51613
5.16129
5.80645
6.45161
7.09677
7.74194
8.3871
9.03226
9.67742
Y_COORDINATES 31 double
-9.67742
-9.03226
-8.3871
-7.74194
-7.09677
-6.45161
-5.80645
-5.16129
-4.51613
-3.87097
-3.22581
-2.58065
-1.93548
-1.29032
-0.645161
0
0.645161
1.29032
1.93548
2.58065
3.22581
3.87097
4.51613
5.16129
5.80645
6.45161
7.09677
7.74194
8.3871
9.03226
9.67742
Z_COORDINATES 31 double
-9.67742
-9.03226
-8.3871
-7.74194
-7.09677
-6.45161
-5.80645
-5.16129
-4.51613
-3.87097
-3.22581
-2.58065
-1.93548
-1.29032
-0.645161
0
0.645161
1.29032
1.93548
2.58065
3.22581
3.87097
4.51613
5.16129
5.80645
6.45161
7.09677
7.74194
8.3871
9.03226
9.67742
POINT_DATA 29791
SCALARS data double 1
LOOKUP_TABLE default
-0.0201652
-0.0267208
-0.033052
-0.0385937
-0.0429849
-0.0457389
-0.0466493
-0.0455969
-0.0427511
-0.0382042
-0.0321528
-0.0248839
-0.0167599
-0.00819245
0.000383884
0.0085412
0.0158861
0.022088
0.0269026
0.0301878
0.0319099
0.0321416
0.0310488
0.0288704
0.0258921
0.0223907
0.0186484
0.0149204
0.0114426
0.00834099
0.00577064
-0.0273284
-0.0364856
-0.045342
-0.0533126
-0.0598355
-0.0642605
-0.0662382
-0.0654807
-0.0621506
-0.0562951
-0.0481136
-0.0379519
-0.0262865
-0.0136921
-0.000805075
0.0117214
0.0232625
0.0332684
0.0413063
0.0470905
0.0504996
0.0515783
0.050524
0.0476585
0.0433916
0.0381156
0.032267
0.0262655
0.0205078
0.0152171
0.0107129
-0.0282273
-0.038169
-0.0479797
-0.0572049
-0.0652064
-0.0713112
-0.0749621
-0.0757078
-0.0735417
-0.0683499
-0.0601965
-0.0493401
-0.0362279
-0.0214712
-0.00580479
0.00996596
0.0250242
0.0386065
0.0500638
0.0589106
0.0648579
0.0678278
0.067947
0.0655204
0.0609919
0.0547752
0.047415
0.0394654
0.0315053
0.0238965
0.0171518
-0.0201593
-0.0282502
-0.0366705
-0.0453164
-0.0536395
-0.0610528
-0.0669063
-0.0705338
-0.0715785
-0.069635
-0.0644694
-0.0560695
-0.0446652
-0.030725
-0.0149255
0.00190122
0.0188343
0.0349424
0.0493635
0.0613743
0.0704452
0.0762741
0.0787988
0.0781812
0.0747774
0.0689006
0.0611226
0.0520727
0.0424987
0.0329137
0.0240319
-0.00342489
-0.00692221
-0.0114759
-0.017521
-0.0247459
-0.0328404
-0.0410896
-0.0486166
-0.0545754
-0.0581706
-0.0587375
-0.0558373
-0.0493147
-0.0393283
-0.0263403
-0.0110743
0.00555206
0.0225135
0.0387723
0.053368
0.0654961
0.0745673
0.0802445
0.082448
0.0813406
0.0770396
0.070059
0.0610354
0.0508298
0.0400893
0.0296581
0.0190671
0.0220791
0.0231884
0.021331
0.0164741
0.00853791
-0.00176091
-0.01337
-0.0248988
-0.0351385
-0.0429471
-0.0473937
-0.047856
-0.04409
-0.0362462
-0.0248425
-0.010701
0.00514178
0.0215408
0.0373497
0.0515222
0.0631954
0.0717526
0.0768508
0.0784229
0.0763704
0.0710968
0.0631862
0.0535266
0.0428423
0.0320069
0.0431521
0.0533716
0.0609478
0.0641814
0.0626604
0.0558758
0.0444855
0.029644
0.0132308
-0.00319909
-0.0180882
-0.0300615
-0.0380589
-0.0414413
-0.0400306
-0.0340983
-0.0243074
-0.0116238
0.00279591
0.0177231
0.0319749
0.0445155
0.054536
0.0615
0.0651565
0.0652589
0.0620907
0.0561438
0.048223
0.0390375
0.0293534
0.0637433
0.0803971
0.0939475
0.102208
0.104437
0.0997527
0.0887058
0.0724538
0.0531957
0.0326767
0.0127015
-0.00507539
-0.0193037
-0.0290656
-0.03393
-0.0339517
-0.0296163
-0.0217547
-0.0114292
0.000188982
0.011943
0.0227976
0.0319225
0.0387418
0.0429463
0.0442893
0.0429745
0.0393922
0.0341493
0.0278341
0.0209311
0.0764079
0.0973766
0.115206
0.127476
0.133245
0.131396
0.122343
0.107135
0.0880391
0.0667733
0.045145
0.0248373
0.00725526
-0.00660505
-0.0162098
-0.0214876
-0.0227727
-0.0207217
-0.0162043
-0.0101838
-0.00360221
0.00271807
0.00814247
0.012261
0.0148816
0.015951
0.0156725
0.0143542
0.0123075
0.00989981
0.00716071
0.0781713
0.100378
0.119886
0.134362
0.142841
0.144166
0.138608
0.127012
0.111418
0.0932854
0.0741519
0.055444
0.0383456
0.0236893
0.0119193
0.00310376
-0.00300236
-0.006874
-0.00911439
-0.0103483
-0.0111262
-0.0118516
-0.0127463
-0.0138438
-0.0150324
-0.0159779
-0.0163768
-0.0159628
-0.0147821
-0.0127605
-0.0104685
0.0683895
0.0884578
0.10669
0.121156
0.131056
0.1354
0.134335
0.128425
0.119224
0.107729
0.0949666
0.0818506
0.0690917
0.0571323
0.0461407
0.036047
0.0266175
0.0175397
0.00851349
-0.000660075
-0.0100133
-0.0193765
-0.0283907
-0.0365473
-0.0432792
-0.0477158
-0.0493611
-0.0479415
-0.0438817
-0.0374323
-0.0298546
0.0490209
0.0640389
0.0783526
0.090678
0.100532
0.107265
0.110929
0.111779
0.110699
0.108097
0.104334
0.0996437
0.0940942
0.0875825
0.0798694
0.0706451
0.0596183
0.0466047
0.0316062
0.0148773
-0.00304406
-0.0213459
-0.0390102
-0.0549042
-0.0679288
-0.0766097
-0.0802008
-0.0783831
-0.0719413
-0.061442
-0.048857
0.0242757
0.0324838
0.0411701
0.0498101
0.0583159
0.0664697
0.0742649
0.0816615
0.0888115
0.0955131
0.101429
0.106069
0.108819
0.108986
0.105885
0.098927
0.0877272
0.0721952
0.0526017
0.0296226
0.0043336
-0.0218422
-0.047257
-0.0701791
-0.0889965
-0.101664
-0.107183
-0.105177
-0.096745
-0.0827279
-0.0657523
-0.000302263
0.000926725
0.0036346
0.00801284
0.0143513
0.0228526
0.0334783
0.0459471
0.0597535
0.0741706
0.088258
0.100906
0.11091
0.117078
0.118338
0.113867
0.103196
0.0863093
0.0636928
0.036361
0.00581963
-0.0260229
-0.0570219
-0.0849774
-0.10788
-0.123243
-0.129876
-0.127366
-0.117066
-0.100031
-0.0794191
-0.0191421
-0.0234088
-0.0255689
-0.0249067
-0.0208657
-0.0129374
-0.00118042
0.013961
0.0315166
0.0504084
0.0692994
0.0866779
0.10097
0.110674
0.1145
0.111498
0.101179
0.0835964
0.0593939
0.0298087
-0.00338478
-0.0379884
-0.0715729
-0.101681
-0.126098
-0.142099
-0.148417
-0.144652
-0.132346
-0.112704
-0.0892348
-0.0280159
-0.0349919
-0.0397104
-0.0412284
-0.0389006
-0.0321036
-0.0209217
-0.00587498
0.011869
0.0311069
0.0503742
0.0680489
0.0824756
0.0921105
0.0956609
0.0922159
0.0813529
0.0632154
0.0385442
0.0086722
-0.024544
-0.0588454
-0.0917691
-0.120854
-0.143909
-0.158215
-0.162571
-0.156656
-0.142139
-0.120305
-0.0948072
-0.0251281
-0.031416
-0.0357668
-0.0373415
-0.0356074
-0.0300458
-0.0207845
-0.00833914
0.00620931
0.0217599
0.0369961
0.0504835
0.0607829
0.0665805
0.06681
0.0607652
0.0481894
0.0293374
0.00499575
-0.0235294
-0.0544797
-0.0857586
-0.115116
-0.140332
-0.159468
-0.170047
-0.171074
-0.162375
-0.145673
-0.122264
-0.0957323
-0.0116289
-0.0140923
-0.0153005
-0.0148058
-0.0123608
-0.00774372
-0.00114581
0.0069835
0.0158886
0.0247554
0.0326386
0.0385326
0.0414546
0.0405392
0.035128
0.0248509
0.00969145
-0.00997102
-0.033352
-0.059275
-0.0862296
-0.112465
-0.136143
-0.155486
-0.168981
-0.174598
-0.17165
-0.16015
-0.141794
-0.117823
-0.0915439
0.00860127
0.0120017
0.0157969
0.0198691
0.0240808
0.0282424
0.0320898
0.0352779
0.0375203
0.038397
0.0374611
0.0342712
0.028433
0.019646
0.00775135
-0.00722394
-0.0250301
-0.0451738
-0.0669177
-0.0892922
-0.111137
-0.131167
-0.148078
-0.160654
-0.167914
-0.168398
-0.161777
-0.148252
-0.129401
-0.106335
-0.0819105
0.0298619
0.0394854
0.0486723
0.0567202
0.0631077
0.0672296
0.0687589
0.0674697
0.0635683
0.0570429
0.0479568
0.0364392
0.0226839
0.00694625
-0.0104507
-0.0291097
-0.0485493
-0.0682032
-0.0874269
-0.105505
-0.121676
-0.135161
-0.145232
-0.151259
-0.152801
-0.149021
-0.139921
-0.125852
-0.108174
-0.0877964
-0.0669948
0.0460178
0.0603698
0.0736632
0.0847538
0.092839
0.0970074
0.0969044
0.0924193
0.0841558
0.0724379
0.0577415
0.0406512
0.021823
0.0019411
-0.0183112
-0.0382753
-0.0573292
-0.0749027
-0.0904882
-0.103644
-0.114
-0.121259
-0.125218
-0.125774
-0.12296
-0.116514
-0.106695
-0.0939264
-0.0792591
-0.0633392
-0.0477883
0.0520297
0.0680565
0.082727
0.0947237
0.103145
0.106973
0.105881
0.0998589
0.0897209
0.0759929
0.0593871
0.0407403
0.0209549
0.000932053
-0.018479
-0.0365231
-0.0525664
-0.0661193
-0.0768495
-0.084581
-0.0892849
-0.0910607
-0.0901193
-0.0867567
-0.0813444
-0.0740909
-0.0653906
-0.0556492
-0.0455426
-0.0354139
-0.0262184
0.045223
0.059011
0.0714962
0.0815208
0.0883015
0.0909589
0.0892576
0.0832673
0.0737862
0.0613798
0.0467871
0.0308567
0.0144849
-0.00145486
-0.0161679
-0.0289859
-0.039399
-0.0470805
-0.0518983
-0.0539119
-0.0533533
-0.0505964
-0.0461171
-0.0404471
-0.0341356
-0.0277019
-0.0215522
-0.015988
-0.0112855
-0.00747987
-0.00490665
0.026022
0.0337466
0.0405186
0.0456547
0.0486922
0.0491171
0.0468488
0.042015
0.0351805
0.0268007
0.0174468
0.00775805
-0.00160612
-0.0100215
-0.016945
-0.0219542
-0.024776
-0.025307
-0.0236209
-0.0199644
-0.0147359
-0.00845087
-0.00169409
0.00493218
0.010859
0.0154292
0.018331
0.0194287
0.0188195
0.0167427
0.0133849
-0.00206277
-0.00317164
-0.00470243
-0.00664058
-0.00899095
-0.0117419
-0.0147829
-0.0179445
-0.0210512
-0.023865
-0.0261203
-0.0275419
-0.0278676
-0.0268733
-0.0243979
-0.0203657
-0.0148052
-0.00786031
0.00020731
0.00902201
0.0181125
0.0269419
0.0349514
0.0416055
0.046441
0.0488191
0.0485902
0.0458085
0.0408726
0.0342277
0.0264509
-0.0333788
-0.04434
-0.0551557
-0.0650278
-0.0734614
-0.0798664
-0.0839341
-0.0854704
-0.0847515
-0.0818028
-0.0767215
-0.0696583
-0.0608092
-0.0504041
-0.0387056
-0.0260094
-0.0126502
0.000998082
0.0145254
0.0274877
0.039419
0.0498512
0.0583456
0.0645226
0.0680995
0.068571
0.06597
0.0605272
0.0528388
0.0434691
0.0332356
-0.0607975
-0.0804292
-0.0994189
-0.116304
-0.130158
-0.139888
-0.145022
-0.145359
-0.141577
-0.133944
-0.122888
-0.108942
-0.0927105
-0.0748232
-0.0559104
-0.0365815
-0.0174191
0.00103183
0.0182707
0.0338421
0.0473399
0.0584151
0.0667915
0.0722772
0.0747869
0.0740055
0.0701242
0.063502
0.0548188
0.0446666
0.0339639
-0.0783934
-0.103553
-0.127808
-0.149222
-0.166603
-0.178525
-0.18443
-0.184122
-0.178547
-0.168139
-0.153548
-0.135567
-0.115069
-0.09295
-0.0700746
-0.0472477
-0.0251964
-0.00455213
0.0141589
0.0305147
0.0441958
0.0549817
0.0627518
0.0674819
0.0692503
0.0679306
0.0638166
0.0573292
0.0491316
0.0397691
0.0301333
-0.0815776
-0.107616
-0.132738
-0.154886
-0.172808
-0.185061
-0.19103
-0.190553
-0.184648
-0.173802
-0.158732
-0.140303
-0.119466
-0.09718
-0.0743664
-0.0518644
-0.030413
-0.0106294
0.00700119
0.0221243
0.03451
0.0440433
0.0507156
0.0546114
0.0559026
0.0546004
0.0510271
0.045602
0.0388841
0.0313233
0.02365
-0.0699966
-0.0923303
-0.113963
-0.13303
-0.148479
-0.158968
-0.164111
-0.163741
-0.158734
-0.149521
-0.136734
-0.121133
-0.103549
-0.0848181
-0.0657373
-0.0470281
-0.0293171
-0.0131164
0.00118516
0.0133211
0.0231401
0.0305954
0.0357327
0.0386739
0.0396075
0.038613
0.0359786
0.0320318
0.0272048
0.0218225
0.0164116
-0.0487721
-0.0642841
-0.0794713
-0.0928352
-0.103711
-0.11109
-0.114719
-0.114545
-0.111146
-0.104822
-0.0960154
-0.0852605
-0.0731406
-0.0602422
-0.0471233
-0.0342884
-0.0221733
-0.0111313
-0.00142611
0.00676762
0.013359
0.0183322
0.0217371
0.0236765
0.0242962
0.0236841
0.0220364
0.0195641
0.0165649
0.0132491
0.00992798
-0.0296997
-0.0392323
-0.0483589
-0.0562327
-0.0622815
-0.0658084
-0.0664782
-0.0640801
-0.058892
-0.0510729
-0.0409509
-0.0290038
-0.0158324
-0.00211894
0.011419
0.0240791
0.0352224
0.0443223
0.0510041
0.0550717
0.0565181
0.0555186
0.0524064
0.0476347
0.0417261
0.0351954
0.0285469
0.022203
0.0165121
0.0116736
0.00777195
-0.0395436
-0.0526253
-0.0652019
-0.0763463
-0.0852149
-0.090911
-0.0928706
-0.0906006
-0.0843773
-0.0742949
-0.060693
-0.0441479
-0.0254455
-0.00553008
0.0145589
0.0337638
0.0510847
0.0656582
0.0768264
0.084187
0.0876193
0.0872837
0.0835936
0.0771634
0.0687383
0.0590425
0.0488462
0.0388356
0.0295866
0.0214397
0.0146867
-0.039942
-0.0538543
-0.0675611
-0.0802931
-0.0911125
-0.0991049
-0.10338
-0.103199
-0.0985663
-0.0893281
-0.0756187
-0.0578851
-0.0368758
-0.0136006
0.0107386
0.0348398
0.0573998
0.0772224
0.0933191
0.104988
0.111865
0.113944
0.111555
0.105314
0.0960453
0.0845306
0.0717409
0.0585793
0.0458817
0.0341988
0.0240872
-0.0270823
-0.0379798
-0.049439
-0.061186
-0.0724313
-0.0823622
-0.0899546
-0.0941528
-0.0943981
-0.0900816
-0.0808765
-0.0668144
-0.0483148
-0.0261773
-0.00152602
0.0242819
0.0497692
0.0734699
0.0940598
0.110469
0.121966
0.12821
0.129256
0.125518
0.117706
0.106461
0.0928266
0.0778461
0.0625923
0.0478491
0.034478
-0.00143722
-0.00535951
-0.0110163
-0.0189303
-0.0286851
-0.0398315
-0.0512532
-0.0615964
-0.0695103
-0.0737737
-0.073388
-0.0677246
-0.0566121
-0.0403798
-0.0198337
0.00381956
0.0290896
0.0543471
0.0779808
0.0985414
0.114867
0.12617
0.132085
0.132661
0.128323
0.119411
0.106909
0.0918946
0.0755999
0.0590161
0.0432366
0.0324013
0.0381248
0.0407616
0.0388411
0.0322512
0.0209335
0.00599953
-0.0109584
-0.0277044
-0.0423627
-0.0531878
-0.0587863
-0.0582679
-0.0513486
-0.0383669
-0.0202326
0.00168819
0.0257229
0.0500693
0.0729681
0.0928645
0.108535
0.119175
0.124423
0.124354
0.118973
0.109109
0.0957812
0.080265
0.0636724
0.0471969
0.0681043
0.0843331
0.0962761
0.101509
0.0993455
0.089173
0.0720089
0.049575
0.0249076
0.000436435
-0.0214359
-0.0386215
-0.0495531
-0.0533425
-0.0498339
-0.0395768
-0.0237183
-0.00385171
0.0181709
0.0404321
0.0611366
0.0787691
0.0922069
0.100779
0.104266
0.102443
0.0959525
0.085687
0.072813
0.0584239
0.0436236
0.0979629
0.123345
0.143678
0.155808
0.158562
0.150853
0.133538
0.108328
0.0787915
0.0476738
0.0177769
-0.00836871
-0.0287442
-0.042035
-0.0477064
-0.0459936
-0.0377967
-0.0245324
-0.00794289
0.0101064
0.0278249
0.0436648
0.0564424
0.0654033
0.0702254
0.0706783
0.0672635
0.060722
0.051958
0.0418822
0.0312526
0.11533
0.146526
0.172568
0.189966
0.197266
0.193092
0.178113
0.153876
0.124074
0.0914375
0.0587891
0.0287165
0.00332755
-0.0159442
-0.0284162
-0.0341466
-0.0338276
-0.0286388
-0.0200604
-0.00967551
0.00101855
0.0107653
0.0186501
0.0241466
0.0270952
0.0275634
0.0260154
0.0230606
0.019211
0.0150386
0.0106965
0.115862
0.148157
0.175939
0.195874
0.206507
0.206433
0.196139
0.176877
0.152001
0.12386
0.0948759
0.0672534
0.0427645
0.0225888
0.00726236
-0.00329349
-0.00965538
-0.0127508
-0.0136821
-0.0135451
-0.0132703
-0.0135049
-0.0145605
-0.0164117
-0.0187707
-0.0209685
-0.0224362
-0.0226406
-0.0215447
-0.0190294
-0.0157655
0.0988061
0.127116
0.152218
0.171427
0.183571
0.187499
0.183548
0.17259
0.157208
0.139053
0.119774
0.100792
0.083153
0.0674339
0.0537384
0.0417629
0.0309306
0.020542
0.00993549
-0.00135778
-0.0135007
-0.0262887
-0.0391687
-0.0513056
-0.0617299
-0.0689388
-0.0721215
-0.0707496
-0.0652882
-0.0561237
-0.0448876
0.0673765
0.0874008
0.105956
0.121377
0.133011
0.140183
0.143135
0.142326
0.139268
0.134714
0.129293
0.123379
0.117031
0.109981
0.1017
0.0915047
0.0787193
0.0628254
0.0436082
0.0212774
-0.00347427
-0.0294768
-0.0551846
-0.0788225
-0.0986169
-0.112127
-0.118209
-0.116281
-0.107285
-0.092104
-0.0733588
0.0281771
0.0374216
0.0470341
0.0565437
0.0659287
0.0751069
0.0842798
0.0935149
0.103149
0.112994
0.1226
0.131226
0.137874
0.141366
0.140477
0.134091
0.12138
0.101964
0.0760335
0.0444348
0.00867735
-0.0291424
-0.066523
-0.100781
-0.129363
-0.148941
-0.158029
-0.155967
-0.144116
-0.123791
-0.0985254
-0.010227
-0.011815
-0.0114569
-0.0085029
-0.00237638
0.00740845
0.0210422
0.0382736
0.0583752
0.0803395
0.102779
0.123986
0.142051
0.155014
0.161056
0.158693
0.146972
0.125623
0.0951687
0.0569777
0.0132186
-0.033269
-0.0792239
-0.121248
-0.15618
-0.180004
-0.190978
-0.188389
-0.173938
-0.149283
-0.118689
-0.0393126
-0.0492801
-0.0562785
-0.0588421
-0.0559743
-0.0467841
-0.0310922
-0.00937105
0.0168893
0.0461233
0.0763144
0.105123
0.130055
0.148669
0.158802
0.15878
0.147618
0.125165
0.0921909
0.0504164
0.00243101
-0.0484743
-0.0985966
-0.144141
-0.181628
-0.206673
-0.217435
-0.213225
-0.196003
-0.167663
-0.132954
-0.0526731
-0.0666161
-0.0772853
-0.0828691
-0.082232
-0.0743409
-0.0590608
-0.0369815
-0.00993098
0.0203074
0.0514981
0.0811115
0.106512
0.125185
0.13496
0.134226
0.122109
0.0986085
0.0646602
0.0221475
-0.0261981
-0.0769787
-0.12643
-0.170741
-0.206469
-0.229232
-0.237301
-0.23011
-0.209796
-0.178382
-0.14081
-0.0476495
-0.0602729
-0.0700333
-0.075299
-0.0751107
-0.0685933
-0.0557085
-0.0370722
-0.0143972
0.0106627
0.0360733
0.0595711
0.0788373
0.0917015
0.096341
0.0914662
0.0764711
0.0515437
0.0177118
-0.0231605
-0.0684718
-0.115055
-0.159457
-0.198231
-0.228308
-0.245688
-0.248952
-0.237759
-0.214334
-0.180717
-0.14175
-0.0260744
-0.0325128
-0.0370521
-0.0386998
-0.0369428
-0.0313267
-0.0219613
-0.00942028
0.00508241
0.0203053
0.034759
0.0468182
0.0548515
0.0573725
0.0531884
0.0415372
0.0221997
-0.00442199
-0.0372773
-0.0746756
-0.114371
-0.153708
-0.189846
-0.220004
-0.241767
-0.251824
-0.249217
-0.233891
-0.208057
-0.173664
-0.135171
0.00608548
0.00901383
0.0125974
0.0169058
0.0218477
0.0273006
0.0329772
0.0383891
0.0430564
0.0463163
0.0474234
0.045603
0.0401188
0.0303531
0.01589
-0.00340608
-0.0273222
-0.0552536
-0.0861927
-0.118737
-0.151153
-0.181473
-0.207664
-0.227794
-0.240256
-0.242637
-0.2345
-0.21608
-0.189454
-0.156368
-0.120662
0.0401286
0.0530534
0.0654215
0.0763362
0.0850979
0.0909973
0.0935811
0.0924681
0.0879556
0.0799861
0.0685826
0.0538384
0.0359195
0.0150712
-0.00836515
-0.0339325
-0.0610332
-0.0889176
-0.116687
-0.143299
-0.167601
-0.188384
-0.204479
-0.214844
-0.218703
-0.214616
-0.202627
-0.183202
-0.158154
-0.128919
-0.0985397
0.0667169
0.0874632
0.106745
0.122907
0.134791
0.141246
0.141711
0.135918
0.124798
0.108793
0.0885546
0.0648755
0.0386417
0.0107759
-0.0178006
-0.0461972
-0.0735645
-0.099109
-0.122105
-0.141896
-0.157904
-0.169633
-0.176708
-0.178888
-0.176124
-0.16789
-0.154586
-0.136795
-0.115951
-0.0930821
-0.070345
0.0781757
0.10221
0.124349
0.142582
0.15557
0.161977
0.161233
0.153191
0.139118
0.119763
0.0961409
0.0694448
0.0409605
0.0119733
-0.0163043
-0.0427936
-0.066583
-0.0869605
-0.103429
-0.115704
-0.123704
-0.127519
-0.127395
-0.123702
-0.116918
-0.107262
-0.0953136
-0.0816378
-0.0671981
-0.0525639
-0.0389956
0.0703814
0.0918538
0.11152
0.127519
0.138658
0.143741
0.142306
0.134324
0.121045
0.103277
0.0820909
0.0587207
0.0344747
0.0106351
-0.0116251
-0.0313127
-0.0476579
-0.0601519
-0.0685625
-0.0729313
-0.0735474
-0.0709038
-0.065643
-0.0584941
-0.0502188
-0.0415396
-0.0330292
-0.0251077
-0.0182352
-0.0125209
-0.008405
0.0438465
0.0570019
0.0688766
0.0782461
0.0843691
0.0864926
0.0843755
0.0781048
0.0685695
0.0564176
0.0424813
0.0277046
0.0130722
-0.000470611
-0.012087
-0.0211092
-0.0270802
-0.0297857
-0.029267
-0.0258185
-0.0199581
-0.0123787
-0.00388265
0.00469095
0.0125376
0.0187004
0.0227675
0.0245489
0.0240573
0.0215874
0.0173707
0.00367124
0.00427267
0.0043836
0.00376757
0.0023461
2.32855e-05
-0.00314657
-0.00696247
-0.0111445
-0.0153657
-0.0192382
-0.0223427
-0.0242604
-0.0246129
-0.0231
-0.0195352
-0.0138752
-0.00624013
0.00307887
0.0136204
0.0247773
0.0358377
0.0460434
0.0546532
0.0610109
0.0641724
0.0639767
0.0604961
0.0541247
0.0454551
0.0351968
-0.0418268
-0.0554602
-0.0687402
-0.0807711
-0.0908987
-0.0984848
-0.103157
-0.104615
-0.103289
-0.0992419
-0.0926173
-0.0836164
-0.072483
-0.0594926
-0.0449514
-0.0291981
-0.0126178
0.00435386
0.0212292
0.0374661
0.0524823
0.0656805
0.0764871
0.0843941
0.0890086
0.0895826
0.086226
0.0792492
0.0692975
0.0571304
0.0437223
-0.0821824
-0.108495
-0.133737
-0.156019
-0.17405
-0.186544
-0.192858
-0.192621
-0.1869
-0.176116
-0.160897
-0.142005
-0.120279
-0.0965783
-0.0717402
-0.0465542
-0.0217572
0.00197638
0.0240392
0.0438848
0.0610308
0.0750645
0.0856579
0.0925833
0.0957378
0.0946624
0.0896927
0.0813071
0.0702596
0.057343
0.0436162
-0.108813
-0.143478
-0.176674
-0.20581
-0.229186
-0.245076
-0.25268
-0.251594
-0.243309
-0.228493
-0.208105
-0.183292
-0.155293
-0.125358
-0.0946754
-0.0643236
-0.0352528
-0.00826428
0.0159978
0.0370385
0.0545047
0.0681752
0.0779539
0.0838609
0.0860351
0.0843082
0.0791543
0.0711285
0.0609714
0.0494062
0.0374126
-0.114745
-0.151181
-0.186089
-0.216697
-0.241212
-0.257882
-0.265793
-0.264577
-0.255842
-0.240335
-0.219119
-0.193454
-0.164699
-0.134214
-0.10328
-0.0730406
-0.0444762
-0.0183809
0.0046492
0.0242075
0.0400637
0.0521444
0.0605133
0.0653477
0.0669238
0.0652855
0.0609371
0.0544257
0.0463722
0.0373623
0.028149
-0.0996278
-0.131313
-0.161761
-0.188475
-0.209919
-0.22441
-0.231373
-0.230438
-0.223002
-0.209731
-0.191567
-0.169625
-0.145109
-0.119216
-0.0930673
-0.0676599
-0.0438367
-0.0222641
-0.00342275
0.0123862
0.0250273
0.0345097
0.040964
0.044616
0.0457642
0.0445555
0.0414322
0.0368239
0.0312109
0.0250142
0.0187325
-0.0704777
-0.0928587
-0.114547
-0.133603
-0.148986
-0.159356
-0.164346
-0.163822
-0.158704
-0.149461
-0.136764
-0.121409
-0.104255
-0.0861527
-0.0679019
-0.0502097
-0.0336729
-0.0187583
-0.00579626
0.00501569
0.0136025
0.019995
0.024312
0.0267393
0.02751
0.0267791
0.0248477
0.0219903
0.0185502
0.0148147
0.0110244
-0.0374034
-0.0491372
-0.0602214
-0.0695099
-0.0762487
-0.0795716
-0.0789958
-0.0743029
-0.065892
-0.0540319
-0.039228
-0.0221925
-0.0038041
0.0149536
0.0330606
0.0495352
0.0635047
0.0742758
0.0813897
0.0846585
0.0841764
0.0803046
0.0736285
0.0648961
0.0549353
0.0445807
0.0345812
0.0255484
0.0178782
0.0117852
0.00718666
-0.0492979
-0.0652311
-0.080355
-0.0933976
-0.103251
-0.108805
-0.109263
-0.104065
-0.0936148
-0.0781197
-0.0581296
-0.0345204
-0.00845024
0.0187163
0.0455041
0.0704395
0.0921613
0.109533
0.12174
0.128354
0.129367
0.125179
0.11655
0.104507
0.0902357
0.0749247
0.0596987
0.0455482
0.0331407
0.022847
0.0147982
-0.0489549
-0.0656156
-0.0818535
-0.0965988
-0.108612
-0.116753
-0.119806
-0.116894
-0.108062
-0.0932001
-0.0726061
-0.0470079
-0.0175414
0.0143134
0.0468386
0.0782138
0.10666
0.130595
0.148772
0.160385
0.165138
0.163254
0.155432
0.142757
0.126573
0.108202
0.0890679
0.0704717
0.053407
0.0385071
0.0262093
-0.0315002
-0.0440389
-0.0571929
-0.0705268
-0.0830031
-0.0935883
-0.100915
-0.103669
-0.101135
-0.0925968
-0.077742
-0.0567559
-0.0303516
0.000251617
0.0334171
0.0672279
0.0996534
0.128736
0.152773
0.170472
0.181055
0.184318
0.180622
0.170815
0.156122
0.137711
0.117122
0.0958867
0.0752945
0.0562903
0.0397035
0.00217473
-0.00133415
-0.00705198
-0.0155935
-0.0264115
-0.038896
-0.0515972
-0.0627603
-0.0705945
-0.0735506
-0.0704099
-0.0604725
-0.0436674
-0.0205978
0.0075053
0.0389012
0.0715137
0.103139
0.131664
0.155268
0.17258
0.182796
0.18571
0.181691
0.171591
0.156193
0.136966
0.115523
0.0933711
0.0717477
0.0518198
0.0459194
0.0546329
0.0592902
0.0580191
0.0506769
0.0372822
0.019234
-0.00132736
-0.0214054
-0.0385477
-0.0505139
-0.055567
-0.0526702
-0.0416127
-0.0230179
0.00174379
0.0307267
0.0616284
0.0920383
0.119676
0.142609
0.159414
0.169271
0.171986
0.167933
0.157436
0.141766
0.122487
0.101186
0.0792906
0.0581584
0.0913743
0.113152
0.129208
0.136408
0.13387
0.120968
0.0989382
0.0701782
0.0387798
0.00797686
-0.0190773
-0.0396903
-0.0519062
-0.0547047
-0.0480606
-0.0328894
-0.0108825
0.0157144
0.0443679
0.0725266
0.0978759
0.118545
0.133243
0.141316
0.142727
0.137457
0.126531
0.111353
0.0934121
0.0741482
0.0548834
0.128425
0.16125
0.187255
0.202349
0.205036
0.194145
0.170689
0.137135
0.0983112
0.0579216
0.0196952
-0.0130508
-0.0377366
-0.0527648
-0.0576133
-0.0528025
-0.0397341
-0.0204712
0.00253622
0.0267362
0.0497476
0.0695857
0.0848133
0.0946122
0.0987666
0.0972087
0.0907776
0.080661
0.0680659
0.0542274
0.0401049
0.148478
0.187808
0.220096
0.240823
0.248155
0.240616
0.218976
0.185569
0.145411
0.102233
0.0598372
0.0216517
-0.0096009
-0.032155
-0.0452974
-0.0493349
-0.0454304
-0.0353835
-0.0213595
-0.00560639
0.00980934
0.0232146
0.0334598
0.0399696
0.0426982
0.0419254
0.0384455
0.033234
0.0270587
0.0207428
0.0145437
0.146078
0.185688
0.219029
0.24182
0.252266
0.248904
0.232308
0.204483
0.170005
0.132141
0.0941994
0.0591286
0.029225
0.00592437
-0.010261
-0.0196852
-0.0233921
-0.022894
-0.0199122
-0.0161136
-0.012882
-0.0111525
-0.0113401
-0.0133462
-0.0166668
-0.0202714
-0.0232169
-0.0246833
-0.0244416
-0.0222349
-0.0187988
0.12056
0.153864
0.182571
0.203298
0.214676
0.215587
0.20649
0.188921
0.166433
0.141398
0.116122
0.0925329
0.0719762
0.0550885
0.0418002
0.0314399
0.0229339
0.0150324
0.00655063
-0.0034012
-0.0152465
-0.0288501
-0.0435355
-0.0581794
-0.0714114
-0.0811378
-0.0860789
-0.085483
-0.0796924
-0.0690904
-0.0555903
0.0764855
0.098038
0.117267
0.132185
0.142155
0.146674
0.146177
0.141661
0.135246
0.128129
0.121273
0.115225
0.11002
0.105172
0.0997584
0.0925903
0.0824362
0.0682574
0.0494257
0.025911
-0.001618
-0.0317897
-0.0626531
-0.0918749
-0.117046
-0.134866
-0.143592
-0.142462
-0.13236
-0.1143
-0.0914186
0.0228158
0.0296221
0.0365374
0.0432003
0.0498522
0.0567349
0.064333
0.0731112
0.0836105
0.0957775
0.109142
0.122767
0.135277
0.144965
0.149976
0.148531
0.139183
0.121055
0.0940334
0.0589109
0.0174126
-0.0278882
-0.0737984
-0.116804
-0.153477
-0.17937
-0.192264
-0.191341
-0.177964
-0.153695
-0.1228
-0.0290131
-0.0367128
-0.0421829
-0.04426
-0.0418812
-0.0341008
-0.0203607
-0.000649893
0.0241326
0.0528331
0.0837213
0.11456
0.142748
0.165527
0.180241
0.184612
0.177018
0.156721
0.124043
0.0804569
0.0285565
-0.0281099
-0.0853511
-0.138713
-0.183972
-0.215786
-0.23157
-0.230478
-0.214257
-0.184906
-0.147595
-0.0677451
-0.0864384
-0.101485
-0.110614
-0.112189
-0.104773
-0.0877671
-0.0614951
-0.0278987
0.0111016
0.0529144
0.0944365
0.13227
0.163002
0.183506
0.191248
0.184563
0.162874
0.126838
0.078403
0.0207278
-0.042034
-0.1051
-0.163488
-0.212547
-0.246461
-0.262491
-0.259845
-0.240571
-0.206967
-0.1648
-0.0850153
-0.108677
-0.128202
-0.140846
-0.144788
-0.138431
-0.121227
-0.0936971
-0.0582637
-0.0171716
0.0266616
0.0698486
0.10878
0.139924
0.16014
0.166975
0.158919
0.135612
0.0979478
0.0481136
-0.0105231
-0.0736467
-0.136376
-0.193694
-0.240987
-0.272449
-0.285473
-0.279437
-0.256608
-0.219445
-0.173952
-0.0774445
-0.0989408
-0.116738
-0.128333
-0.132155
-0.126819
-0.111947
-0.0881335
-0.0576787
-0.0226973
0.0141208
0.0497071
0.080846
0.104448
0.117829
0.118968
0.106729
0.0810264
0.0429066
-0.00543595
-0.0607722
-0.119062
-0.175811
-0.22646
-0.266881
-0.29177
-0.298925
-0.288015
-0.26143
-0.221662
-0.174583
-0.047558
-0.0603646
-0.0706338
-0.076732
-0.0777042
-0.0727121
-0.0616559
-0.0451065
-0.0247296
-0.0021369
0.0206646
0.0414207
0.0578046
0.0676242
0.069032
0.0607233
0.0420998
0.0133938
-0.0242771
-0.0689051
-0.117692
-0.167233
-0.213816
-0.25374
-0.283722
-0.299368
-0.29909
-0.282918
-0.253263
-0.212506
-0.166051
-0.00326266
-0.00308174
-0.00190015
0.000652914
0.00469384
0.0103164
0.0172769
0.0250887
0.0330379
0.0402391
0.0456365
0.0480773
0.0464064
0.0395822
0.0267991
0.00760702
-0.017984
-0.0494289
-0.085618
-0.124875
-0.16503
-0.203551
-0.237754
-0.265039
-0.283178
-0.28895
-0.281481
-0.261157
-0.230276
-0.190976
-0.147901
0.0440121
0.0581458
0.0717684
0.0839122
0.0938389
0.100876
0.104446
0.104173
0.100364
0.0928979
0.0817122
0.0667886
0.0481642
0.0259523
0.00037488
-0.0281971
-0.0591971
-0.0918353
-0.125089
-0.157702
-0.188223
-0.215074
-0.236682
-0.251598
-0.258684
-0.255989
-0.243313
-0.221311
-0.192028
-0.157222
-0.120574
0.0820511
0.107459
0.131218
0.151277
0.166233
0.174813
0.176193
0.170116
0.157724
0.139537
0.116305
0.0889386
0.058439
0.0258432
-0.00782023
-0.0415567
-0.0744087
-0.105465
-0.133869
-0.158814
-0.17955
-0.195403
-0.205808
-0.210359
-0.208869
-0.200581
-0.185813
-0.165345
-0.140828
-0.113532
-0.0860694
0.100814
0.131756
0.160502
0.184438
0.201851
0.211172
0.211491
0.202664
0.186296
0.163291
0.134888
0.102538
0.0678017
0.032238
-0.00268465
-0.0356597
-0.0655787
-0.0915667
-0.112999
-0.129496
-0.14091
-0.147292
-0.148872
-0.146028
-0.139273
-0.128814
-0.115267
-0.0993603
-0.082253
-0.0646633
-0.0481408
0.0948392
0.123841
0.150746
0.173033
0.189105
0.197478
0.197353
0.188683
0.173076
0.151518
0.12533
0.0960484
0.0653103
0.0347285
0.00578692
-0.0202462
-0.0423718
-0.0599055
-0.0724991
-0.0801376
-0.0831087
-0.0819506
-0.0773898
-0.0702669
-0.0614739
-0.051864
-0.0421121
-0.0327382
-0.0243726
-0.0171877
-0.0117829
0.0645905
0.0842361
0.102423
0.11736
0.127966
0.133203
0.132574
0.126117
0.115001
0.100004
0.0821621
0.0626712
0.0427979
0.0237791
0.00673159
-0.00742477
-0.0180207
-0.0246811
-0.0273453
-0.0262677
-0.0219858
-0.0152628
-0.00701301
0.00178529
0.0101735
0.0170071
0.0217538
0.0241975
0.0242019
0.0220601
0.017923
0.01636
0.0210836
0.0253089
0.0284415
0.0302007
0.0302582
0.0285457
0.0251809
0.0205704
0.0150862
0.00921026
0.00349606
-0.00147346
-0.00513763
-0.00700912
-0.00672211
-0.00407311
0.000947247
0.0081382
0.0170828
0.0271713
0.0376477
0.0476732
0.056401
0.0630546
0.0665217
0.0665369
0.0632118
0.0568009
0.0479235
0.037231
-0.0394742
-0.0520805
-0.0641635
-0.0749157
-0.0837143
-0.0900729
-0.093581
-0.0940554
-0.0919838
-0.0874896
-0.0807558
-0.0719988
-0.061449
-0.049342
-0.0359193
-0.0214367
-0.00618655
0.00948808
0.025183
0.0404208
0.0546593
0.0673164
0.0778066
0.0855883
0.0902161
0.0908482
0.0875232
0.0806349
0.0706842
0.0584508
0.0448255
-0.0898351
-0.118149
-0.145091
-0.168593
-0.187231
-0.199788
-0.205433
-0.203934
-0.196589
-0.183971
-0.166871
-0.146205
-0.12294
-0.0980306
-0.0723663
-0.046746
-0.0218785
0.00162083
0.0232249
0.042478
0.0589876
0.0724245
0.0825274
0.0891161
0.0921115
0.0910569
0.0862525
0.0782773
0.0677276
0.0553856
0.0421807
-0.124081
-0.16311
-0.200289
-0.23265
-0.258245
-0.275337
-0.282835
-0.280483
-0.27012
-0.252631
-0.229224
-0.201297
-0.170323
-0.137744
-0.104891
-0.0729207
-0.0428064
-0.0153176
0.00897854
0.0296974
0.046616
0.0596512
0.068838
0.0743111
0.0762951
0.0747119
0.0700302
0.0629015
0.0538972
0.0436926
0.0330808
-0.133472
-0.175407
-0.215399
-0.250247
-0.277849
-0.296408
-0.304664
-0.302386
-0.291574
-0.273211
-0.248635
-0.219394
-0.187123
-0.153418
-0.119743
-0.0873553
-0.0572886
-0.0303237
-0.0069882
0.0124252
0.0278309
0.0393175
0.0471097
0.0515323
0.0529795
0.0516385
0.0480284
0.0427674
0.0363172
0.0291887
0.021911
-0.11718
-0.154145
-0.189511
-0.220358
-0.244887
-0.261332
-0.26884
-0.267136
-0.257969
-0.242212
-0.221056
-0.195878
-0.168135
-0.139245
-0.110506
-0.0830299
-0.0577175
-0.0352341
-0.0160061
-0.000235962
0.012071
0.0210737
0.0270551
0.0303831
0.0314724
0.0306191
0.0282821
0.0249574
0.0209782
0.0166855
0.0123592
-0.0837419
-0.110168
-0.135647
-0.15792
-0.175753
-0.187691
-0.193186
-0.192187