# vtk DataFile Version 2.0
Func
ASCII
DATASET RECTILINEAR_GRID
DIMENSIONS 31 31 31
X_COORDINATES 31 double
-9.67742
-9.03226
-8.3871
-7.74194
-7.09677
-6.45161
-5.80645
-5.16129
-4.51613
-3.87097
-3.22581
-2.58065
-1.93548
-1.29032
-0.645161
0
0.645161
1.29032
1.93548
2.58065
3.22581
3.87097
4.51613
5.16129
5.80645
6.45161
7.09677
7.74194
8.3871
9.03226
9.67742
Y_COORDINATES 31 double
-9.67742
-9.03226
-8.3871
-7.74194
-7.09677
-6.45161
-5.80645
-5.16129
-4.51613
-3.87097
-3.22581
-2.58065
-1.93548
-1.29032
-0.645161
0
0.645161
1.29032
1.93548
2.58065
3.22581
3.87097
4.51613
5.16129
5.80645
6.45161
7.09677
7.74194
8.3871
9.03226
9.67742
Z_COORDINATES 31 double
-9.67742
-9.03226
-8.3871
-7.74194
-7.09677
-6.45161
-5.80645
-5.16129
-4.51613
-3.87097
-3.22581
-2.58065
-1.93548
-1.29032
-0.645161
0
0.645161
1.29032
1.93548
2.58065
3.22581
3.87097
4.51613
5.16129
5.80645
6.45161
7.09677
7.74194
8.3871
9.03226
9.67742
POINT_DATA 29791
SCALARS data double 1
LOOKUP_TABLE default
0.00885158
0.0120182
0.0153751
0.0187251
0.0219574
0.0248872
0.0274056
0.0293944
0.0308151
0.0315545
0.0315054
0.0305717
0.0286767
0.0257724
0.0218505
0.0169526
0.0111793
0.00469366
-0.00227888
-0.00945503
-0.0165048
-0.0230688
-0.0287875
-0.0333269
-0.0364173
-0.0376856
-0.0370327
-0.0344929
-0.0304772
-0.0252588
-0.0195911
0.0123723
0.0168559
0.0216045
0.026396
0.0310645
0.0353711
0.0391522
0.0422117
0.0444815
0.0457741
0.0459042
0.0446978
0.0420076
0.0377298
0.0318237
0.0243301
0.0153877
0.00524166
-0.00575639
-0.0171533
-0.0284131
-0.038946
-0.0481561
-0.0554855
-0.0604781
-0.06248
-0.0613501
-0.0571655
-0.050535
-0.0419241
-0.0325138
0.014009
0.0192216
0.0248131
0.0305799
0.0363361
0.0418305
0.0468281
0.0510727
0.0544282
0.0566112
0.0573292
0.0562976
0.0532646
0.0480381
0.0405166
0.0307179
0.018804
0.00509559
-0.00992718
-0.0256304
-0.0412533
-0.0559515
-0.0688648
-0.0791833
-0.0862381
-0.0890699
-0.0874489
-0.0815256
-0.0721105
-0.0598817
-0.046461
0.0129419
0.0180853
0.0237826
0.0299217
0.0363459
0.0428173
0.0490792
0.0548058
0.0597489
0.0635031
0.0656332
0.0657036
0.0633139
0.058141
0.0499824
0.038797
0.0247404
0.00818511
-0.0102765
-0.0298402
-0.0495247
-0.0682297
-0.0848249
-0.098238
-0.107573
-0.111568
-0.109905
-0.102718
-0.091036
-0.0757228
-0.058797
0.00932663
0.0136611
0.0188134
0.0248521
0.0316943
0.0391798
0.0470354
0.054866
0.0622681
0.0686841
0.0734962
0.0760705
0.0758084
0.0722045
0.0649062
0.0537678
0.0388959
0.0206775
-0.000215897
-0.0228377
-0.0460099
-0.0683944
-0.0886032
-0.105307
-0.117379
-0.123281
-0.122577
-0.11536
-0.102789
-0.0858605
-0.066828
0.00385816
0.00690405
0.0111433
0.0168996
0.0242057
0.033028
0.0430908
0.0539254
0.0649367
0.0753858
0.0844336
0.0912023
0.0948448
0.094622
0.0899785
0.0806131
0.0665342
0.0480956
0.0260039
0.00130685
-0.0246587
-0.0503499
-0.074146
-0.0944768
-0.109987
-0.118913
-0.120666
-0.115239
-0.103815
-0.0874358
-0.0684537
-0.00290384
-0.00144883
0.00165974
0.00707189
0.0149687
0.0254862
0.0383589
0.0530439
0.0687326
0.084488
0.0992238
0.111787
0.121045
0.125985
0.125806
0.120004
0.10844
0.0913848
0.0695266
0.0439598
0.0161263
-0.0122778
-0.0394434
-0.0635934
-0.0831619
-0.0962342
-0.102034
-0.100395
-0.0924045
-0.0790383
-0.0626048
-0.010521
-0.0108853
-0.00909958
-0.00414381
0.0043313
0.0166628
0.0326071
0.0515529
0.0724758
0.0942412
0.115513
0.134856
0.150841
0.162168
0.167769
0.166911
0.159275
0.145005
0.124724
0.0995187
0.0708753
0.0405827
0.0105807
-0.0171955
-0.0410057
-0.0588639
-0.0697899
-0.0734209
-0.0706415
-0.0622679
-0.0504436
-0.0189662
-0.0214781
-0.0213929
-0.0173023
-0.00868247
0.00502481
0.0236113
0.0464142
0.0722105
0.0996943
0.127307
0.153359
0.176152
0.194118
0.205938
0.210655
0.207761
0.197253
0.179654
0.155995
0.127747
0.0967256
0.0649321
0.0343936
0.00696866
-0.0153634
-0.0314366
-0.0406856
-0.0437382
-0.0411925
-0.0349544
-0.0283981
-0.0335639
-0.0358305
-0.0334112
-0.0256143
-0.0116526
0.00831544
0.0336037
0.0628268
0.0945576
0.127074
0.158496
0.186922
0.210576
0.227942
0.23788
0.239719
0.233316
0.219081
0.197956
0.171349
0.141038
0.109013
0.0773161
0.0478497
0.0225242
0.00263484
-0.0110919
-0.0190387
-0.0215867
-0.0203909
-0.0389466
-0.047421
-0.0529184
-0.0533092
-0.0477524
-0.0352375
-0.0158575
0.00971398
0.0399775
0.0734546
0.108343
0.142665
0.174411
0.201695
0.222889
0.236745
0.242484
0.239861
0.229181
0.211285
0.187486
0.159468
0.129139
0.0984786
0.0693463
0.0435419
0.0223987
0.00672272
-0.00370361
-0.00910364
-0.0109291
-0.050447
-0.0628819
-0.0725234
-0.0769556
-0.0752164
-0.0660897
-0.0495918
-0.0263454
0.00208993
0.0342609
0.0683791
0.102477
0.13455
0.162714
0.185336
0.201155
0.209362
0.20966
0.202284
0.18798
0.167944
0.143727
0.117097
0.0898908
0.063843
0.0406201
0.0214834
0.00721143
-0.00237287
-0.00743493
-0.0093115
-0.0622746
-0.0790936
-0.0935443
-0.102995
-0.106398
-0.102363
-0.0908226
-0.072319
-0.0484195
-0.0204818
0.00980785
0.0405929
0.0699825
0.0962047
0.117731
0.133379
0.142392
0.144484
0.13986
0.129185
0.113537
0.0943048
0.073071
0.051471
0.0310371
0.0132946
-0.000673142
-0.0102217
-0.0156212
-0.017088
-0.015945
-0.073367
-0.0945493
-0.113955
-0.128814
-0.138033
-0.140088
-0.134836
-0.122718
-0.105267
-0.0836958
-0.0595208
-0.0344106
-0.0100565
0.0119701
0.0303275
0.0439949
0.052333
0.0551236
0.0525749
0.0452984
0.0342511
0.0206526
0.00586821
-0.00870985
-0.0218032
-0.0320323
-0.0385703
-0.0409894
-0.0397548
-0.0352189
-0.0287733
-0.0824232
-0.107378
-0.131202
-0.151069
-0.165874
-0.174018
-0.175294
-0.170043
-0.159736
-0.145414
-0.128393
-0.110111
-0.0920107
-0.075413
-0.0614214
-0.0508485
-0.044172
-0.0415083
-0.0426164
-0.0469245
-0.0535855
-0.061554
-0.0696911
-0.0768667
-0.082081
-0.0841067
-0.0824098
-0.0768191
-0.0680374
-0.0565899
-0.0439765
-0.0882114
-0.115793
-0.142825
-0.166503
-0.185748
-0.198945
-0.205847
-0.206714
-0.202937
-0.195396
-0.185205
-0.173565
-0.161666
-0.150566
-0.141121
-0.133922
-0.129272
-0.127174
-0.127342
-0.129234
-0.132106
-0.135079
-0.137236
-0.137705
-0.13576
-0.130339
-0.121191
-0.108393
-0.0928597
-0.0752704
-0.0572187
-0.0898656
-0.118526
-0.147058
-0.172756
-0.194597
-0.211012
-0.221747
-0.227009
-0.228108
-0.225791
-0.220995
-0.214717
-0.207916
-0.201414
-0.195839
-0.191578
-0.188776
-0.187328
-0.186907
-0.186998
-0.186952
-0.186045
-0.183564
-0.178873
-0.171494
-0.160543
-0.146008
-0.128162
-0.108055
-0.0864536
-0.0649816
-0.0870665
-0.115094
-0.14321
-0.168874
-0.191148
-0.208572
-0.220915
-0.228368
-0.23216
-0.232946
-0.231532
-0.228752
-0.225378
-0.222042
-0.219183
-0.217024
-0.215576
-0.21465
-0.21389
-0.212809
-0.210845
-0.207415
-0.201985
-0.194121
-0.18355
-0.169585
-0.152382
-0.132344
-0.11054
-0.0877441
-0.0655112
-0.0800518
-0.105826
-0.131705
-0.15538
-0.176025
-0.19234
-0.20415
-0.211659
-0.21602
-0.217834
-0.217817
-0.216682
-0.215065
-0.213449
-0.212132
-0.211209
-0.210591
-0.210027
-0.209146
-0.207495
-0.204591
-0.199974
-0.193263
-0.184187
-0.172636
-0.158129
-0.140923
-0.121478
-0.100775
-0.0795169
-0.0590825
-0.0694772
-0.0916584
-0.113814
-0.13393
-0.15131
-0.164867
-0.174501
-0.180453
-0.183794
-0.185097
-0.185015
-0.184173
-0.183101
-0.182169
-0.181564
-0.181284
-0.181166
-0.180917
-0.18016
-0.178475
-0.175454
-0.170746
-0.164094
-0.155365
-0.144568
-0.131432
-0.116263
-0.099517
-0.0820132
-0.0643258
-0.047567
-0.056207
-0.0738356
-0.0912362
-0.106746
-0.119822
-0.129627
-0.136148
-0.139674
-0.141179
-0.141213
-0.140376
-0.139213
-0.138159
-0.137484
-0.137278
-0.137459
-0.137803
-0.137984
-0.137623
-0.136338
-0.133787
-0.129715
-0.123975
-0.116546
-0.107533
-0.0968649
-0.0848691
-0.0719638
-0.058766
-0.0457008
-0.0335525
-0.04114
-0.0536412
-0.0657155
-0.0761022
-0.0844278
-0.0901288
-0.0932909
-0.0942439
-0.0938381
-0.0925936
-0.0910403
-0.0896339
-0.0887048
-0.088418
-0.0887664
-0.0895862
-0.0905951
-0.0914372
-0.0917358
-0.0911426
-0.089383
-0.0862887
-0.0818148
-0.0760398
-0.0691522
-0.0612668
-0.0527229
-0.0438894
-0.0351805
-0.0268776
-0.0194117
-0.0251314
-0.0322729
-0.0388467
-0.0440277
-0.0476272
-0.0493676
-0.0494287
-0.048171
-0.0462898
-0.0442496
-0.0424875
-0.0413449
-0.0410275
-0.0415786
-0.0428824
-0.0446882
-0.046653
-0.048392
-0.0495324
-0.049763
-0.0488752
-0.0467884
-0.0435555
-0.0393512
-0.0344423
-0.029115
-0.023721
-0.0185839
-0.0139371
-0.00993873
-0.00667572
-0.00904526
-0.0109008
-0.0121304
-0.0123537
-0.0115736
-0.00979225
-0.0072754
-0.00439765
-0.00166992
0.000525592
0.00187112
0.00216376
0.00134284
-0.000498698
-0.00312758
-0.00620245
-0.00932114
-0.0120739
-0.0140974
-0.0151229
-0.0150115
-0.0137718
-0.0115538
-0.0086266
-0.00533309
-0.00211288
0.000666842
0.00272153
0.00396694
0.00434743
0.00408309
0.00613761
0.00918546
0.0128402
0.01706
0.0216574
0.0263761
0.0308796
0.0347957
0.0378159
0.0396604
0.0401476
0.0392257
0.0369861
0.03366
0.0295945
0.025214
0.0209694
0.0172842
0.014502
0.0128414
0.0123678
0.0129839
0.0144471
0.0164007
0.0184328
0.0199728
0.0206433
0.0201945
0.0186633
0.0160825
0.0129224
0.0193145
0.0265525
0.0343264
0.0422298
0.0499148
0.0569164
0.0628488
0.0673568
0.0703326
0.0716055
0.0711299
0.0689981
0.0654408
0.0608092
0.055544
0.0501297
0.045045
0.0407086
0.0374308
0.0353732
0.0345279
0.0347165
0.0356164
0.0368007
0.037805
0.0379587
0.0368887
0.0343822
0.0305758
0.0255823
0.0200547
0.0290607
0.0393495
0.0500736
0.0605653
0.0703619
0.0788578
0.085646
0.0904027
0.0931926
0.0939451
0.0927295
0.089752
0.0853456
0.0799424
0.0740354
0.0681326
0.0627082
0.0581525
0.0547289
0.0525401
0.0515139
0.0514104
0.0518542
0.0523792
0.0524991
0.0514899
0.0490047
0.0448739
0.0393121
0.0325017
0.0251932
0.0342915
0.0461413
0.0583409
0.0700719
0.08082
0.0899189
0.0969757
0.101709
0.104306
0.104772
0.103253
0.10002
0.0954548
0.090014
0.0841907
0.0784699
0.0732853
0.0689754
0.0657473
0.06365
0.0625675
0.0622294
0.0622471
0.0621586
0.0614967
0.059545
0.0560072
0.0507598
0.0440716
0.0361739
0.0278433
0.0340152
0.0456099
0.0574798
0.0688051
0.0790895
0.08772
0.0943311
0.0986992
0.101068
0.101485
0.100123
0.09726
0.0932606
0.0885413
0.0835368
0.0786604
0.0742699
0.0706314
0.0678928
0.0660636
0.0650128
0.0644819
0.0641184
0.0635159
0.062274
0.0597554
0.0557307
0.0501439
0.0432615
0.0353332
0.0270674
0.0284481
0.0381042
0.0479845
0.0573791
0.0658912
0.0729892
0.0784392
0.0820635
0.0840898
0.0845759
0.0836757
0.0816206
0.0787019
0.0752429
0.071573
0.0679978
0.064775
0.0620887
0.0600318
0.0585926
0.0576557
0.0570128
0.0563905
0.0554805
0.0539858
0.0514173
0.0476374
0.0425855
0.0365296
0.0296847
0.0226309
0.0196198
0.0262542
0.033089
0.0395803
0.0454823
0.0504087
0.054218
0.056822
0.0583742
0.0589187
0.0585615
0.0574553
0.055788
0.0537636
0.0515858
0.0494405
0.0474806
0.0458119
0.0444827
0.0434767
0.0427148
0.0420622
0.0413467
0.0403779
0.0389772
0.0368458
0.0338935
0.0300898
0.0256557
0.0207286
0.0157399
0.0120021
0.0162409
0.0207131
0.0251669
0.0294554
0.0333617
0.0367581
0.0394957
0.0415552
0.0428008
0.0430973
0.0423132
0.0403318
0.0370641
0.0324645
0.0265483
0.0194068
0.0112179
0.0022483
-0.00714744
-0.0165406
-0.0254504
-0.0333826
-0.0398679
-0.0445113
-0.0467614
-0.0464954
-0.0437175
-0.0389126
-0.0324978
-0.025233
0.0164394
0.022307
0.0284927
0.0347025
0.0407326
0.0463238
0.0512862
0.0553687
0.058534
0.0605596
0.061213
0.0602604
0.0574853
0.0527116
0.045833
0.0368413
0.0258545
0.013135
-0.000903844
-0.0156978
-0.0305545
-0.0446909
-0.0572957
-0.0675925
-0.0749239
-0.0783249
-0.0776444
-0.0729429
-0.0649013
-0.0541799
-0.0420848
0.0181507
0.0247865
0.0318799
0.0391593
0.0464073
0.0533694
0.0597706
0.0652941
0.0698227
0.0730151
0.0745005
0.0738965
0.0708396
0.065023
0.0562417
0.0444358
0.0297335
0.0124781
-0.00676129
-0.0271891
-0.0478164
-0.0675171
-0.0851177
-0.0994906
-0.109677
-0.114258
-0.112986
-0.106022
-0.0942682
-0.0786827
-0.0611466
0.01605
0.0223273
0.0292943
0.0368011
0.0446826
0.0527086
0.0605926
0.06794
0.0744826
0.0797189
0.0830869
0.0839958
0.0818733
0.0762229
0.0666875
0.0531122
0.0356011
0.0145554
-0.00931185
-0.034976
-0.0611453
-0.0863367
-0.108996
-0.12762
-0.140926
-0.147036
-0.145601
-0.136766
-0.121708
-0.10166
-0.0790534
0.0102992
0.0151736
0.0211008
0.0281762
0.0363518
0.0455063
0.0553445
0.0653943
0.0751657
0.0839492
0.0909289
0.0952361
0.096017
0.0925141
0.0841521
0.0706213
0.0519501
0.0285543
0.00125533
-0.0287211
-0.0598018
-0.0901618
-0.117873
-0.141061
-0.158105
-0.166702
-0.166356
-0.157169
-0.140487
-0.11775
-0.0917475
0.00191898
0.00472923
0.00912636
0.0155542
0.0241427
0.034941
0.0476618
0.0617477
0.0764248
0.0907272
0.103524
0.113598
0.11974
0.120856
0.116081
0.104881
0.0871453
0.0632458
0.0340597
0.000965851
-0.0342239
-0.0693783
-0.102223
-0.130525
-0.152325
-0.164974
-0.167758
-0.160653
-0.145059
-0.122502
-0.0959511
-0.00831188
-0.00798578
-0.00539538
0.000343676
0.00958892
0.022618
0.0391648
0.0585826
0.079774
0.101485
0.122227
0.140383
0.154332
0.162585
0.163924
0.157529
0.143085
0.120851
0.0916931
0.0570724
0.0189701
-0.0202429
-0.0580025
-0.0917628
-0.11925
-0.137577
-0.145752
-0.143531
-0.132224
-0.113291
-0.0896929
-0.0197544
-0.0222183
-0.0216677
-0.0167218
-0.00676344
0.00875757
0.0296079
0.0550568
0.0836728
0.113909
0.143907
0.171637
0.195048
0.21223
0.221583
0.221964
0.212805
0.1942
0.166937
0.132484
0.0929114
0.0507457
0.00876079
-0.0302519
-0.0637549
-0.0887484
-0.103922
-0.108746
-0.104317
-0.0918887
-0.0742375
-0.0323283
-0.0380177
-0.0399942
-0.0363596
-0.0262257
-0.0087418
0.0159069
0.046926
0.0825704
0.121031
0.160118
0.197422
0.230494
0.257036
0.275084
0.283178
0.280489
0.266916
0.243121
0.210514
0.171168
0.127671
0.0829084
0.0398218
0.00113151
-0.0301725
-0.0524761
-0.0649501
-0.0684043
-0.0638037
-0.0536223
-0.0462086
-0.0557988
-0.0611727
-0.059931
-0.0509245
-0.0329921
-0.00625357
0.0284716
0.0691731
0.113851
0.160061
0.205108
0.246236
0.280845
0.306686
0.32204
0.325855
0.317844
0.298525
0.269204
0.231883
0.189119
0.143799
0.0989035
0.0572256
0.0216493
-0.00599008
-0.0246203
-0.034774
-0.0371209
-0.0338045
-0.0615207
-0.0758826
-0.0858407
-0.0885465
-0.0826181
-0.0665958
-0.0405141
-0.00516671
0.0372402
0.0846132
0.134377
0.18368
0.229601
0.269376
0.300596
0.321392
0.33057
0.327708
0.313194
0.288208
0.25463
0.214903
0.17181
0.128248
0.086958
0.0506541
0.0212499
-6.04952e-05
-0.0136232
-0.0198906
-0.0207346
-0.0779736
-0.0979601
-0.113732
-0.122071
-0.121407
-0.110013
-0.0878233
-0.0555507
-0.0155178
0.0302007
0.0790336
0.128132
0.174572
0.215592
0.248779
0.272254
0.284788
0.285904
0.275903
0.255841
0.227447
0.19298
0.15503
0.116294
0.0793297
0.0466518
0.0200738
0.000749987
-0.0116246
-0.0174205
-0.0183584
-0.0946365
-0.120765
-0.143221
-0.158516
-0.164948
-0.160573
-0.145215
-0.119464
-0.0856801
-0.0458156
-0.00230673
0.0421476
0.0847864
0.123009
0.154558
0.177679
0.191233
0.194771
0.188561
0.17356
0.151327
0.123897
0.0935882
0.0628038
0.0338033
0.00889054
-0.0103943
-0.0231005
-0.0296474
-0.0304726
-0.0272845
-0.109979
-0.142131
-0.1714
-0.194138
-0.208574
-0.212608
-0.205963
-0.189083
-0.164298
-0.133361
-0.0984738
-0.0620691
-0.0266193
0.00556907
0.0325184
0.0527177
0.0652114
0.0696595
0.0663484
0.0561585
0.0404814
0.0210982
7.9671e-06
-0.0207487
-0.0392918
-0.0535366
-0.0623464
-0.0650989
-0.0624462
-0.0550076
-0.044589
-0.122164
-0.159414
-0.19466
-0.224206
-0.246271
-0.258678
-0.261073
-0.253754
-0.238972
-0.218247
-0.193493
-0.16681
-0.140308
-0.115924
-0.0952785
-0.0795699
-0.0695072
-0.0652724
-0.0665255
-0.0724411
-0.0817916
-0.0930584
-0.104585
-0.114727
-0.122024
-0.124627
-0.121861
-0.113492
-0.100449
-0.0835834
-0.0648398
-0.129482
-0.170131
-0.209573
-0.244173
-0.272197
-0.291474
-0.301607
-0.302781
-0.297138
-0.285971
-0.270904
-0.253693
-0.236074
-0.219593
-0.2055
-0.194658
-0.187512
-0.18407
-0.183924
-0.186295
-0.19011
-0.194111
-0.19698
-0.19747
-0.19454
-0.186599
-0.173421
-0.15514
-0.132931
-0.107842
-0.0819226
-0.13078
-0.17258
-0.213758
-0.250835
-0.282177
-0.305699
-0.321012
-0.328232
-0.329385
-0.325572
-0.318166
-0.308617
-0.298318
-0.288462
-0.279952
-0.273344
-0.26884
-0.266283
-0.265206
-0.264871
-0.264358
-0.262649
-0.258749
-0.251774
-0.241064
-0.225325
-0.204698
-0.179609
-0.151375
-0.121151
-0.0909845
-0.125704
-0.166215
-0.206407
-0.243048
-0.27465
-0.299294
-0.316641
-0.326801
-0.331676
-0.332236
-0.329659
-0.32515
-0.319823
-0.314577
-0.310028
-0.306476
-0.303917
-0.302066
-0.300409
-0.298257
-0.294828
-0.289329
-0.281047
-0.269416
-0.2541
-0.234129
-0.209901
-0.182026
-0.151828
-0.120447
-0.0897893
-0.114712
-0.15166
-0.188327
-0.22181
-0.2508
-0.273621
-0.290024
-0.300161
-0.305811
-0.307866
-0.307365
-0.305333
-0.302667
-0.300036
-0.297831
-0.296151
-0.294835
-0.293499
-0.291602
-0.288507
-0.283562
-0.276169
-0.265856
-0.252327
-0.2355
-0.214748
-0.19062
-0.163796
-0.135483
-0.106695
-0.0790541
-0.0988538
-0.130411
-0.161538
-0.189733
-0.213903
-0.23267
-0.24591
-0.253852
-0.25814
-0.259623
-0.259239
-0.257873
-0.256252
-0.254861
-0.253912
-0.253347
-0.252878
-0.25205
-0.250309
-0.247069
-0.241795
-0.234059
-0.223594
-0.21032
-0.194358
-0.175424
-0.154129
-0.131148
-0.107478
-0.0839385
-0.0617548
-0.0794587
-0.104374
-0.128632
-0.150199
-0.168229
-0.18169
-0.190596
-0.195268
-0.197194
-0.197183
-0.196085
-0.194653
-0.19346
-0.192825
-0.192801
-0.193189
-0.193599
-0.193515
-0.192372
-0.189638
-0.18488
-0.177819
-0.168365
-0.156619
-0.142863
-0.12714
-0.110079
-0.092304
-0.0745686
-0.057468
-0.0417797
-0.0578691
-0.0754632
-0.0922025
-0.106575
-0.11801
-0.125848
-0.130245
-0.131614
-0.131242
-0.129884
-0.128278
-0.12703
-0.126544
-0.126964
-0.128181
-0.12986
-0.131508
-0.13255
-0.132419
-0.130627
-0.12684
-0.120914
-0.112917
-0.103111
-0.0919166
-0.0796763
-0.0670229
-0.0545234
-0.0426945
-0.031923
-0.0225359
-0.0353129
-0.0453968
-0.0545284
-0.0617572
-0.0668034
-0.0693883
-0.0698046
-0.0685348
-0.0666238
-0.0647323
-0.0634506
-0.0632034
-0.0641936
-0.0663722
-0.069452
-0.0729532
-0.0762796
-0.0788029
-0.0799509
-0.0792871
-0.0765709
-0.0717916
-0.0651659
-0.0571079
-0.0481665
-0.0389495
-0.0300994
-0.0221385
-0.0153822
-0.0100423
-0.00603603
-0.0129691
-0.0157687
-0.0176432
-0.0182123
-0.0174926
-0.0155674
-0.0128512
-0.00987262
-0.00738829
-0.00592699
-0.00589274
-0.00749451
-0.0107098
-0.0152762
-0.0207206
-0.0264182
-0.0316746
-0.0358158
-0.0382767
-0.0386782
-0.03688
-0.0330022
-0.0274068
-0.0206525
-0.0134103
-0.00651634
-0.000629009
0.00376189
0.00649892
0.00751158
0.00722694
0.00788232
0.0117484
0.0164075
0.0217003
0.0273304
0.0328949
0.0378824
0.0417442
0.0440371
0.044393
0.0426165
0.0387293
0.0329849
0.0258564
0.0179913
0.0101424
0.00308122
-0.00249359
-0.00604222
-0.00725593
-0.0060998
-0.00282195
0.00207955
0.00791662
0.0139114
0.0190392
0.0226353
0.0242387
0.023816
0.0214159
0.0177327
0.0258197
0.0353226
0.0454296
0.055516
0.0650486
0.0733723
0.079909
0.0841161
0.0858586
0.0849367
0.0813599
0.075365
0.0674119
0.0581509
0.0483665
0.0388993
0.0305602
0.02404
0.0198297
0.0181553
0.0189466
0.0218401
0.0262244
0.0313116
0.0362481
0.0398709
0.041533
0.0408149
0.0377847
0.032599
0.0261398
0.0390098
0.0525839
0.0665642
0.0799916
0.0921676
0.102278
0.109719
0.113978
0.115186
0.113292
0.108475
0.101138
0.0918849
0.0814776
0.0707701
0.0606287
0.0518501
0.0450772
0.0407287
0.0389433
0.0395599
0.0421306
0.0459751
0.0502573
0.0540999
0.0562749
0.05619
0.0534868
0.0483173
0.0409325
0.0323121
0.0461218
0.0618016
0.0777361
0.092784
0.106176
0.117037
0.124791
0.128977
0.129911
0.127654
0.122492
0.114918
0.105594
0.0953063
0.084894
0.0751761
0.0668771
0.060554
0.056537
0.0548852
0.0553765
0.0575278
0.0606515
0.0639323
0.0665363
0.0672631
0.0656131
0.0613042
0.0545561
0.0456888
0.0356961
0.0457816
0.0611594
0.0766826
0.0912294
0.104065
0.114408
0.121718
0.12562
0.12651
0.12451
0.119934
0.11327
0.10514
0.0962525
0.0873413
0.0791013
0.072129
0.0668637
0.0635417
0.0621637
0.0624922
0.0640738
0.0662912
0.0684324
0.0697835
0.0692815
0.0665441
0.0614077
0.054094
0.0449472
0.0348629
0.0384484
0.051326
0.0643086
0.0764434
0.0871389
0.0957132
0.101822
0.105162
0.106103
0.104768
0.101434
0.096502
0.0904673
0.0838793
0.0772958
0.071233
0.0661232
0.0622732
0.0598327
0.0587725
0.0588868
0.0598112
0.0610658
0.0621076
0.0624022
0.0611296
0.0580581
0.0530363
0.0463217
0.0382169
0.0294464
0.0267639
0.0357036
0.0447674
0.0532553
0.0607767
0.066817
0.0711711
0.0736892
0.0746177
0.0740484
0.0721716
0.0692542
0.0656206
0.0616225
0.057611
0.0539057
0.0507693
0.0483819
0.0468231
0.0460606
0.0459517
0.0462565
0.046667
0.0468403
0.0464452
0.0449749
0.0422678
0.0382334
0.0331167
0.0271317
0.0207967
0.0131631
0.0176809
0.0224192
0.0270846
0.0315426
0.0356075
0.0391633
0.0421154
0.0445033
0.0462281
0.047178
0.0472266
0.0462399
0.0440897
0.0406722
0.03593
0.0298754
0.0226083
0.0143268
0.00533326
-0.00397441
-0.013123
-0.0216017
-0.0289042
-0.0345787
-0.0380245
-0.0390299
-0.037603
-0.0341007
-0.0289129
-0.0226264
0.0177068
0.0238077
0.0301786
0.0364757
0.0425174
0.0481026
0.053066
0.057243
0.0606887
0.0632413
0.0647079
0.0648637
0.0634663
0.0602794
0.0551055
0.0478235
0.0384287
0.0270634
0.0140366
-0.000165199
-0.0148922
-0.0293674
-0.0427469
-0.0541906
-0.0629491
-0.0679674
-0.068947
-0.0659823
-0.0595637
-0.0503046
-0.0393609
0.0189779
0.0256114
0.0326141
0.0396699
0.0465943
0.0532151
0.0592992
0.0646488
0.0692605
0.072872
0.0751614
0.0757539
0.0742467
0.0702487
0.0634312
0.053585
0.0406786
0.0249037
0.00670304
-0.0132146
-0.0338964
-0.0542012
-0.0728892
-0.0887269
-0.100618
-0.106983
-0.107388
-0.102046
-0.0916523
-0.0771496
-0.060311
0.0156916
0.0215165
0.0279131
0.0347006
0.0417705
0.0489943
0.0561574
0.0630037
0.0693803
0.0748692
0.0789529
0.0810344
0.0804793
0.0766772
0.0691147
0.0574555
0.0416176
0.0218339
-0.00131266
-0.0268715
-0.0535577
-0.0798298
-0.104013
-0.12444
-0.139634
-0.147462
-0.147352
-0.139547
-0.125021
-0.105047
-0.0820498
0.00809826
0.0119043
0.0166438
0.02242
0.0292718
0.0371998
0.0460123
0.0553799
0.0649038
0.0739424
0.0816999
0.0872676
0.0896915
0.0880597
0.0816034
0.0698011
0.0524763
0.0298725
0.00269468
-0.027873
-0.0602139
-0.0923803
-0.122251
-0.147713
-0.166883
-0.177099
-0.177609
-0.168647
-0.151397
-0.127406
-0.0995766
-0.00259636
-0.00155297
0.00100659
0.00559436
0.012467
0.0218188
0.0334974
0.0470763
0.0618234
0.076803
0.0908551
0.102667
0.110869
0.114157
0.111422
0.101885
0.0852111
0.0615997
0.0318344
-0.00270364
-0.0400959
-0.0780106
-0.113894
-0.145191
-0.169604
-0.184013
-0.187419
-0.179936
-0.162859
-0.137884
-0.108197
-0.0154706
-0.0176445
-0.017516
-0.0140538
-0.00672487
0.00492237
0.0207875
0.0403275
0.0624158
0.0857705
0.108802
0.12972
0.146664
0.15786
0.161786
0.157331
0.14393
0.12167
0.0913456
0.054465
0.0131805
-0.0298565
-0.0717159
-0.10944
-0.140341
-0.160966
-0.17
-0.167305
-0.154146
-0.132189
-0.104708
-0.0297424
-0.0354412
-0.037929
-0.0355851
-0.0275616
-0.0130992
0.00776341
0.0343612
0.0651482
0.0984767
0.132302
0.164327
0.192166
0.21354
0.226474
0.229478
0.221705
0.20307
0.174304
0.136962
0.0933415
0.0463214
-0.000879423
-0.0449778
-0.0829465
-0.111157
-0.127928
-0.13277
-0.126778
-0.111423
-0.0898461
-0.0452762
-0.0549522
-0.060538
-0.0597956
-0.0515477
-0.0346958
-0.00920175
0.0241617
0.0634445
0.106661
0.151342
0.194715
0.233903
0.266151
0.289048
0.300734
0.300068
0.286758
0.261418
0.225574
0.18157
0.1324
0.0814558
0.0322346
-0.0119946
-0.047578
-0.0724884
-0.0858476
-0.0884995
-0.0816007
-0.0680144
-0.062222
-0.0766037
-0.086226
-0.0882525
-0.0811884
-0.0635863
-0.0353137
0.00278827
0.0484188
0.0993303
0.152721
0.205447
0.254242
0.295978
0.3279
0.347846
0.354426
0.347153
0.326503
0.293913
0.251684
0.202814
0.150731
0.0990084
0.0510224
0.0103248
-0.0208056
-0.0411661
-0.0513464
-0.0521728
-0.0461752
-0.0806553
-0.100692
-0.115668
-0.122212
-0.118547
-0.102895
-0.0750075
-0.0357373
0.012347
0.0668527
0.124788
0.182794
0.237389
0.285234
0.323384
0.349508
0.362063
0.360427
0.344953
0.316962
0.278642
0.232885
0.183025
0.132555
0.0848
0.0431216
0.00988176
-0.013548
-0.027588
-0.0328184
-0.0314861
-0.100152
-0.126757
-0.148454
-0.161432
-0.163693
-0.153169
-0.129476
-0.0934198
-0.0477347
0.00517719
0.0623013
0.120258
0.17555
0.224835
0.265167
0.294215
0.310419
0.313115
0.30258
0.280016
0.247453
0.207588
0.163535
0.118559
0.0757674
0.0382783
0.00832798
-0.012759
-0.0253773
-0.0300165
-0.0287651
-0.119539
-0.153213
-0.182562
-0.203463
-0.213766
-0.211178
-0.195178
-0.166464
-0.127839
-0.0815853
-0.0305757
0.0219757
0.0727577
0.118626
0.156832
0.185213
0.202337
0.207601
0.201266
0.184436
0.158956
0.127257
0.0921334
0.0564909
0.0230729
-0.00527731
-0.0266544
-0.0400003
-0.045839
-0.0447421
-0.0387852
-0.136955
-0.177434
-0.214477
-0.243787
-0.263145
-0.270111
-0.264038
-0.245491
-0.217249
-0.181376
-0.140478
-0.0974556
-0.0552713
-0.0167061
0.0158427
0.0405276
0.0561613
0.0622934
0.0592275
0.0479874
0.0302204
0.00805172
-0.0161214
-0.0398458
-0.0608542
-0.0766019
-0.085669
-0.0874313
-0.0826566
-0.072128
-0.0580175
-0.15022
-0.196282
-0.23991
-0.276774
-0.304664
-0.321085
-0.325301
-0.31774
-0.301092
-0.277155
-0.248197
-0.216718
-0.185237
-0.156074
-0.131179
-0.111997
-0.0993967
-0.0936194
-0.0942836
-0.100428
-0.110607
-0.123029
-0.135731
-0.146764
-0.154397
-0.156418
-0.151961
-0.140913
-0.12432
-0.103224
-0.0799219
-0.157366
-0.206885
-0.254879
-0.297119
-0.331475
-0.355494
-0.368405
-0.370528
-0.364425
-0.351628
-0.33406
-0.313804
-0.292914
-0.273224
-0.256209
-0.242894
-0.233806
-0.22896
-0.227888
-0.229684
-0.233108
-0.236702
-0.238948
-0.23841
-0.233895
-0.223567
-0.2071
-0.184858
-0.158118
-0.128131
-0.0972523
-0.157142
-0.207383
-0.256753
-0.301244
-0.33887
-0.367317
-0.38584
-0.394707
-0.396331
-0.392024
-0.383406
-0.372181
-0.359978
-0.348183
-0.337835
-0.329562
-0.323578
-0.319693
-0.317358
-0.315731
-0.31377
-0.310344
-0.304355
-0.294849
-0.281131
-0.261789
-0.236945
-0.20733
-0.174333
-0.139293
-0.104484
-0.149306
-0.197362
-0.244873
-0.288157
-0.325426
-0.354592
-0.375004
-0.386934
-0.392645
-0.393297
-0.390268
-0.384962
-0.378654
-0.372352
-0.366727
-0.362078
-0.358353
-0.355194
-0.351995
-0.347982
-0.342303
-0.334126
-0.322734
-0.307599
-0.288452
-0.264342
-0.235715
-0.203513
-0.169093
-0.133735
-0.099457
-0.134612
-0.177856
-0.220576
-0.259509
-0.293109
-0.319592
-0.338458
-0.350037
-0.356441
-0.358733
-0.358125
-0.355787
-0.352716
-0.349621
-0.346878
-0.344518
-0.342282
-0.339678
-0.336066
-0.330743
-0.323029
-0.312359
-0.298342
-0.28081
-0.25984
-0.234957
-0.206807
-0.1764
-0.144932
-0.113496
-0.0836982
-0.114525
-0.150941
-0.186652
-0.218894
-0.246404
-0.267764
-0.282667
-0.291531
-0.296306
-0.298001
-0.297699
-0.296384
-0.294829
-0.293497
-0.292518
-0.291708
-0.290635
-0.288703
-0.285249
-0.279634
-0.271333
-0.260006
-0.245539
-0.228059
-0.207921
-0.18511
-0.160384
-0.134717
-0.109066
-0.0842679
-0.0614123
-0.0908093
-0.119134
-0.146513
-0.170751
-0.190899
-0.205948
-0.215807
-0.220992
-0.223262
-0.223574
-0.222889
-0.222018
-0.221519
-0.221629
-0.222255
-0.223017
-0.223329
-0.222503
-0.219851
-0.214792
-0.206931
-0.196123
-0.182489
-0.166402
-0.14844
-0.129013
-0.108947
-0.0891313
-0.0702711
-0.0529366
-0.0376741
-0.065171
-0.0848645
-0.103441
-0.119326
-0.131912
-0.140624
-0.145586
-0.147399
-0.147584
-0.14702
-0.146517
-0.146684
-0.147849
-0.150009
-0.152842
-0.15577
-0.158058
-0.158922
-0.157652
-0.153714
-0.146829
-0.137024
-0.124624
-0.11022
-0.0945826
-0.0784905
-0.062832
-0.0484171
-0.0357299
-0.0251138
-0.0166115
-0.0390778
-0.050184
-0.0601504
-0.0680565
-0.073653
-0.0767916
-0.0778041
-0.0773436
-0.0766375
-0.0764358
-0.0773501
-0.0797463
-0.0836826
-0.0888894
-0.0948018
-0.100636
-0.105504
-0.108533
-0.108991
-0.106391
-0.100566
-0.0917006
-0.0803129
-0.0671904
-0.0532832
-0.03968
-0.0273415
-0.0170241
-0.00905002
-0.00359363
-0.000275895
-0.0138215
-0.0168302
-0.0188404
-0.0195876
-0.0191777
-0.0178568
-0.0161397
-0.0146949
-0.0144036
-0.0158375
-0.0193623
-0.0250595
-0.0326901
-0.0417003
-0.0512749
-0.0604304
-0.0681372
-0.0734493
-0.0756273
-0.0742428
-0.0692434
-0.0609713
-0.0501236
-0.0376721
-0.0247315
-0.0126457
-0.0024504
0.00512928
0.00987691
0.0117389
0.0114177
0.00929745
0.013522
0.0184803
0.0238246
0.0291207
0.0337886
0.0371667
0.0386059
0.0376016
0.033795
0.0270912
0.017706
0.00617599
-0.00667321
-0.0197994
-0.0320502
-0.04229
-0.0495324
-0.0530603
-0.0525228
-0.04799
-0.0399553
-0.0292798
-0.0170952
-0.00465449
0.00649913
0.0152767
0.0209812
0.0234684
0.0227815
0.0198513
0.0288821
0.0391082
0.0497544
0.0599534
0.0689998
0.0760645
0.0803837
0.0813571
0.07885
0.0727226
0.06314
0.0505889
0.0358623
0.0200055
0.00422874
-0.0102081
-0.022122
-0.030536
-0.0347917
-0.0346363
-0.0302632
-0.0223004
-0.0117405
0.000168298
0.0120823
0.0223232
0.0297956
0.0338528
0.0344128
0.031613
0.0265306
0.0430833
0.0575714
0.0721932
0.0857143
0.0972485
0.105825
0.110638
0.111156
0.107561
0.0999025
0.0885546
0.0742012
0.0578041
0.0405331
0.0236695
0.00848989
-0.00385332
-0.0124522
-0.016743
-0.0165806
-0.0122648
-0.00451638
0.00560173
0.0167983
0.0277155
0.0366299
0.042508
0.0447888
0.0434544
0.0387368
0.0317761
0.0506281
0.0672959
0.0839015
0.099027
0.111718
0.120972
0.126009
0.126381
0.122491
0.114522
0.10297
0.0886134
0.0724644
0.0556964
0.0395467
0.025207
0.0137181
0.0058644
0.00209049
0.00244153
0.00654974
0.0136665
0.0227418
0.0325363
0.0417726
0.048796
0.0527043
0.0530502
0.0498877
0.0435281
0.0350961
0.0500994
0.0664162
0.0825666
0.0971896
0.109384
0.118275
0.123137
0.123625
0.120236
0.113214
0.10307
0.0905487
0.0765797
0.062205
0.0484941
0.0364515
0.0269299
0.0205466
0.0176189
0.0181199
0.0216745
0.0275932
0.0349449
0.0426549
0.0496341
0.0544335
0.0563355
0.0550603
0.0506845
0.0435604
0.0346835
0.0419733
0.0556308
0.0691393
0.0813492
0.0915491
0.0989929
0.103197
0.103888
0.101526
0.0963375
0.0887573
0.0793886
0.0689638
0.0582861
0.0481642
0.0393428
0.0324396
0.027886
0.0258822
0.0263678
0.0290238
0.0333006
0.0384762
0.0437319
0.0482502
0.0509171
0.0512569
0.0490397
0.0444159
0.0376971
0.0296919
0.0292441
0.0387473
0.0482061
0.0567874
0.0640233
0.0693524
0.0724833
0.0732917
0.0720876
0.0690347
0.0644291
0.0586723
0.0522429
0.0456568
0.0394255
0.0340128
0.0297965
0.0270319
0.0258256
0.0261194
0.0276931
0.0301834