# vtk DataFile Version 2.0
Func
ASCII
DATASET RECTILINEAR_GRID
DIMENSIONS 31 31 31
X_COORDINATES 31 double
-9.67742
-9.03226
-8.3871
-7.74194
-7.09677
-6.45161
-5.80645
-5.16129
-4.51613
-3.87097
-3.22581
-2.58065
-1.93548
-1.29032
-0.645161
0
0.645161
1.29032
1.93548
2.58065
3.22581
3.87097
4.51613
5.16129
5.80645
6.45161
7.09677
7.74194
8.3871
9.03226
9.67742
Y_COORDINATES 31 double
-9.67742
-9.03226
-8.3871
-7.74194
-7.09677
-6.45161
-5.80645
-5.16129
-4.51613
-3.87097
-3.22581
-2.58065
-1.93548
-1.29032
-0.645161
0
0.645161
1.29032
1.93548
2.58065
3.22581
3.87097
4.51613
5.16129
5.80645
6.45161
7.09677
7.74194
8.3871
9.03226
9.67742
Z_COORDINATES 31 double
-9.67742
-9.03226
-8.3871
-7.74194
-7.09677
-6.45161
-5.80645
-5.16129
-4.51613
-3.87097
-3.22581
-2.58065
-1.93548
-1.29032
-0.645161
0
0.645161
1.29032
1.93548
2.58065
3.22581
3.87097
4.51613
5.16129
5.80645
6.45161
7.09677
7.74194
8.3871
9.03226
9.67742
POINT_DATA 29791
SCALARS data double 1
LOOKUP_TABLE default
0.021275
0.0277077
0.0339716
0.0391629
0.0429644
0.0448329
0.0446529
0.0424433
0.0384878
0.0330078
0.0263373
0.0188889
0.0111275
0.00353147
-0.00343967
-0.00937922
-0.0139628
-0.0169743
-0.0183234
-0.0180525
-0.016333
-0.01345
-0.0097713
-0.00571322
-0.00168812
0.0018601
0.0045873
0.00626263
0.00695529
0.00665842
0.00591947
0.033277
0.0435536
0.0534623
0.0618246
0.0680821
0.0714246
0.0716492
0.0687213
0.0630799
0.0550503
0.0451336
0.0339615
0.0222536
0.0107596
0.000204877
-0.00876378
-0.0156277
-0.0200403
-0.0218564
-0.0211469
-0.0181939
-0.0134654
-0.00756622
-0.00117894
0.00501903
0.0102695
0.0140342
0.0159596
0.0161828
0.0147573
0.0124804
0.0430174
0.0565072
0.0695355
0.0806937
0.0892485
0.0942033
0.0952032
0.0921903
0.0856975
0.0761144
0.0640603
0.0503326
0.0358524
0.0215905
0.00849492
-0.00258365
-0.0109593
-0.0161725
-0.0180328
-0.0166411
-0.0123849
-0.00590575
0.00196917
0.0103077
0.0181854
0.0245343
0.0286352
0.0300568
0.0290299
0.0256925
0.0211152
0.0479138
0.0632225
0.0781179
0.0910958
0.101343
0.107729
0.109838
0.107552
0.101408
0.0917948
0.0793635
0.0649786
0.0496589
0.0344944
0.0205634
0.00884315
0.000127666
-0.00504814
-0.00646277
-0.00423931
0.00115764
0.00895881
0.0181721
0.02768
0.0363763
0.0429389
0.0465343
0.046677
0.0437258
0.0379187
0.0305744
0.04715
0.0624945
0.0776474
0.091152
0.102203
0.109672
0.113091
0.11227
0.107654
0.0995557
0.08856
0.0754831
0.0613191
0.0471585
0.0341009
0.0231598
0.0151709
0.0107057
0.0100081
0.0129545
0.0190522
0.0274759
0.0371556
0.0468833
0.0554626
0.0614124
0.0638529
0.0622926
0.0572078
0.0489311
0.038969
0.0413789
0.0551979
0.0691789
0.0820335
0.0930465
0.101192
0.105969
0.107107
0.104872
0.0994296
0.0912126
0.080888
0.0693188
0.0574929
0.0464399
0.0371361
0.0304084
0.0268424
0.0267113
0.0299266
0.0360296
0.044222
0.053452
0.0625208
0.0702356
0.0750674
0.0761475
0.0730056
0.0661939
0.0561027
0.0443294
0.0318808
0.0430572
0.0547991
0.0661196
0.076449
0.0849342
0.0910591
0.094457
0.0951426
0.0930857
0.0884921
0.0817995
0.0736553
0.0648641
0.0563158
0.0488962
0.0433926
0.0403988
0.0402381
0.0429053
0.0480473
0.0549832
0.0627795
0.0703477
0.07659
0.0800491
0.0799134
0.0757459
0.0681034
0.0573741
0.0451095
0.0206613
0.0286848
0.037704
0.0470979
0.0564674
0.0651637
0.072658
0.0784765
0.0823414
0.0839886
0.0833524
0.0805884
0.076075
0.0703836
0.0642226
0.0583596
0.0535312
0.0503486
0.0492159
0.0502631
0.0533135
0.0578886
0.0632646
0.0685536
0.0728312
0.0748234
0.0738075
0.0693786
0.0620156
0.0520327
0.0408008
0.00960964
0.0145762
0.0209625
0.0285381
0.0370705
0.0461133
0.0551205
0.0635007
0.0706715
0.0761166
0.0794751
0.0805945
0.0795565
0.0766737
0.0724525
0.0675305
0.0625935
0.0582846
0.0551188
0.0534072
0.0532103
0.0543234
0.0563091
0.0585547
0.060374
0.0607691
0.0591321
0.0550871
0.0489585
0.0409229
0.0320475
0.000272809
0.0027648
0.0070753
0.0133485
0.021495
0.0312436
0.0420229
0.0531184
0.0636592
0.0728764
0.0801136
0.0849071
0.087038
0.0865543
0.0837559
0.0791478
0.0733681
0.0671025
0.060996
0.0555708
0.0511638
0.0478915
0.0456545
0.0441667
0.0430259
0.0415738
0.0393384
0.0359747
0.0316015
0.0262178
0.020497
-0.00658296
-0.00576031
-0.0027589
0.00289795
0.011232
0.0221115
0.0349336
0.0488653
0.0627847
0.0756881
0.0866417
0.0948877
0.0999193
0.101528
0.0998101
0.0951375
0.0880984
0.0794188
0.0698749
0.0602048
0.0510326
0.0428124
0.035804
0.0300724
0.025523
0.0218661
0.0187859
0.0159776
0.0133398
0.0106863
0.00825053
-0.0110969
-0.0112268
-0.00886943
-0.00326849
0.00568201
0.0179589
0.0329327
0.0496686
0.0668458
0.0832593
0.0977325
0.109245
0.117028
0.120631
0.119953
0.115229
0.106984
0.0959669
0.083063
0.0692036
0.0552793
0.0420655
0.0301705
0.0200058
0.0117864
0.00558625
0.00126298
-0.00143013
-0.00279426
-0.00317744
-0.00278437
-0.0141638
-0.0148769
-0.0128634
-0.00713745
0.00247721
0.0160529
0.0329504
0.0521658
0.0722377
0.0918068
0.109502
0.124082
0.134549
0.140234
0.140843
0.136466
0.127543
0.114812
0.0992233
0.0818555
0.0638162
0.046156
0.0297915
0.0154504
0.00363697
-0.00524231
-0.0111464
-0.014243
-0.0149868
-0.0138426
-0.0114117
-0.0170603
-0.0184602
-0.0169848
-0.0114572
-0.00162798
0.0126776
0.0308414
0.0518365
0.0741187
0.0962313
0.116665
0.13401
0.147079
0.155008
0.157319
0.153945
0.145214
0.131807
0.114687
0.0950118
0.0740389
0.053026
0.0331359
0.0153605
0.000456137
-0.0108869
-0.0184446
-0.0222884
-0.0229694
-0.0210163
-0.0173594
-0.0209627
-0.0235778
-0.0232799
-0.0187236
-0.00957089
0.00447838
0.0228677
0.0446007
0.0681032
0.0918829
0.114354
0.133992
0.149464
0.15974
0.164169
0.162517
0.154974
0.142118
0.124863
0.104378
0.0819922
0.0590913
0.0370116
0.0169452
-0.000149331
-0.0133525
-0.0222702
-0.0268692
-0.0277441
-0.0254401
-0.0211381
-0.026535
-0.0311196
-0.0328747
-0.0302953
-0.0229345
-0.0103369
0.00704401
0.0282965
0.0518599
0.0762661
0.0999119
0.121214
0.138736
0.151314
0.158138
0.158807
0.153347
0.142198
0.126171
0.106381
0.0841533
0.060929
0.0381431
0.0171219
-0.00102716
-0.0152076
-0.024879
-0.0299048
-0.0308841
-0.0283451
-0.0236449
-0.0337299
-0.0409917
-0.0456216
-0.0459548
-0.0414189
-0.0313789
-0.0161509
0.00348186
0.0260058
0.0500264
0.0739739
0.0962521
0.115365
0.130044
0.139338
0.142684
0.139934
0.131364
0.117642
0.0997778
0.0790384
0.0568545
0.0346983
0.0139722
-0.00411658
-0.0183381
-0.0280341
-0.032975
-0.0337409
-0.0308258
-0.025701
-0.0418717
-0.0522304
-0.0602405
-0.0640738
-0.0630271
-0.0562744
-0.0439747
-0.026757
-0.00606631
0.0168098
0.0403696
0.0630391
0.083294
0.0997875
0.111449
0.117561
0.117805
0.112279
0.101492
0.0863172
0.0679264
0.047699
0.0271005
0.00756697
-0.00963234
-0.0231661
-0.0322846
-0.0366785
-0.036899
-0.0334002
-0.0277223
-0.0499766
-0.0634424
-0.0748837
-0.0823047
-0.084879
-0.0815947
-0.0724522
-0.0579226
-0.0393732
-0.0179731
0.00485924
0.0275889
0.0486816
0.0667313
0.0805636
0.0893219
0.0925243
0.0901001
0.0823924
0.0701332
0.0543857
0.0364594
0.0177923
-0.000169169
-0.0161154
-0.0286347
-0.0369046
-0.0405464
-0.0400793
-0.0359181
-0.0296416
-0.0571695
-0.0733823
-0.0878823
-0.0985042
-0.104315
-0.104136
-0.0978228
-0.0857066
-0.0690813
-0.0490066
-0.0268246
-0.00403257
0.0178277
0.0372984
0.0531123
0.0642874
0.0701946
0.0706078
0.0657205
0.056134
0.0428096
0.0269911
0.0100879
-0.00644729
-0.0212706
-0.0329021
-0.040454
-0.0434839
-0.0424767
-0.0378088
-0.031079
-0.0630206
-0.081422
-0.0983625
-0.111508
-0.119838
-0.122029
-0.117822
-0.107438
-0.0921134
-0.0728271
-0.0508675
-0.0277129
-0.00492355
0.0159874
0.0336646
0.0470121
0.0552713
0.0580826
0.0555137
0.0480588
0.0365993
0.0223314
0.00664955
-0.00897745
-0.0231663
-0.0343752
-0.0416496
-0.0444842
-0.0433258
-0.0385118
-0.0316493
-0.067645
-0.0876992
-0.106454
-0.12141
-0.131477
-0.135208
-0.132257
-0.122774
-0.107965
-0.0887633
-0.0664365
-0.0424713
-0.0184656
0.00400238
0.0234895
0.0387962
0.0490522
0.0537886
0.0529755
0.0470289
0.0367779
0.023395
0.00827958
-0.00706945
-0.0212201
-0.0325729
-0.040103
-0.0432411
-0.0423926
-0.0378548
-0.0312331
-0.0715296
-0.0928881
-0.113012
-0.129251
-0.140453
-0.145059
-0.142668
-0.133391
-0.118434
-0.0987179
-0.0755235
-0.0503714
-0.0249151
-0.000805651
0.020428
0.0374936
0.0494288
0.0556798
0.0561463
0.0511937
0.0416235
0.0286054
0.0135587
-0.00197829
-0.0165205
-0.0284178
-0.0365771
-0.0403679
-0.0401535
-0.0361928
-0.0300786
-0.0751331
-0.0976549
-0.118932
-0.136189
-0.148212
-0.15335
-0.15116
-0.141743
-0.126326
-0.105844
-0.0816087
-0.0551891
-0.0282995
-0.00266106
0.0201228
0.0386853
0.0519942
0.0594357
0.060863
0.0566117
0.0474711
0.0346167
0.0194898
0.00366383
-0.0113321
-0.0238126
-0.0326299
-0.0371051
-0.0375635
-0.0342321
-0.0286767
-0.0784454
-0.102054
-0.124373
-0.142549
-0.155315
-0.160941
-0.158965
-0.149483
-0.133754
-0.112732
-0.0877591
-0.0604431
-0.032543
-0.00582665
0.0180554
0.0376919
0.0520104
0.0603628
0.062576
0.0589665
0.0503134
0.0377894
0.0228408
0.00705181
-0.00803218
-0.0207179
-0.0298346
-0.0346774
-0.0355432
-0.0326379
-0.0274785
-0.0808329
-0.105293
-0.128433
-0.147393
-0.160872
-0.167097
-0.165596
-0.156461
-0.140972
-0.120085
-0.0951473
-0.0677701
-0.039715
-0.0127509
0.011472
0.031542
0.0463842
0.0553449
0.0582397
0.0553683
0.0474872
0.0357406
0.0215431
0.00644596
-0.00803518
-0.0202423
-0.0290262
-0.0336887
-0.0345089
-0.0316825
-0.0266535
-0.0806869
-0.105294
-0.128591
-0.147839
-0.161748
-0.168564
-0.167826
-0.159614
-0.145187
-0.125466
-0.10175
-0.0755908
-0.0486796
-0.0227132
0.000728798
0.0202964
0.0349619
0.0440981
0.0475235
0.0455148
0.0387792
0.0283898
0.0156734
0.0020845
-0.0109553
-0.0218863
-0.029636
-0.033552
-0.033901
-0.0308752
-0.0257945
-0.0764638
-0.099941
-0.122239
-0.140838
-0.154527
-0.161661
-0.161812
-0.155048
-0.142535
-0.125113
-0.103962
-0.0804902
-0.0562313
-0.0327189
-0.0113786
0.00657311
0.0202109
0.0289689
0.0326803
0.0315867
0.0263131
0.0178086
0.00724662
-0.00408728
-0.0149386
-0.0239201
-0.0300931
-0.0328862
-0.032553
-0.0292771
-0.0242293
-0.0665518
-0.0870286
-0.106589
-0.12306
-0.135394
-0.142196
-0.143071
-0.138075
-0.128204
-0.114157
-0.0969161
-0.0776518
-0.057638
-0.0381454
-0.0203534
-0.00526649
0.00635108
0.0140313
0.0176332
0.01735
0.0136872
0.00741416
-0.000518394
-0.00907003
-0.0172278
-0.0238578
-0.0282051
-0.0298236
-0.0289311
-0.025692
-0.0211038
-0.0510806
-0.0668411
-0.0820264
-0.0949164
-0.104729
-0.110343
-0.11154
-0.10833
-0.101461
-0.0914462
-0.0790096
-0.0650131
-0.0503931
-0.0360811
-0.0229408
-0.0117072
-0.00293926
0.00301951
0.0060629
0.00632657
0.00417131
0.000148129
-0.00506191
-0.0107135
-0.0160837
-0.0203544
-0.023
-0.0236731
-0.0225678
-0.0198042
-0.0161721
-0.0329139
-0.043038
-0.052961
-0.0614184
-0.0679643
-0.071839
-0.072912
-0.0712253
-0.0672306
-0.0612426
-0.0537104
-0.045166
-0.036187
-0.0273465
-0.0191748
-0.0121231
-0.006535
-0.00262288
-0.00045493
4.67534e-05
-0.000903918
-0.00297838
-0.00577003
-0.0088332
-0.011738
-0.0140001
-0.0152915
-0.0154052
-0.0144793
-0.0125593
-0.0102407
0.0344811
0.0450922
0.0553305
0.063938
0.0703435
0.0737085
0.0738142
0.0706261
0.0645968
0.0560607
0.0455343
0.0336691
0.0212083
0.00892705
-0.00242209
-0.0121654
-0.0197581
-0.0248286
-0.0272101
-0.0269543
-0.0243277
-0.0197872
-0.0139308
-0.00743966
-0.000995054
0.00465582
0.00895943
0.0115295
0.0124697
0.0118116
0.0102908
0.0529221
0.0694572
0.0853247
0.0988389
0.109064
0.114796
0.115657
0.111477
0.10296
0.0905885
0.0751283
0.0575617
0.0390229
0.0207067
0.00378202
-0.010699
-0.0218816
-0.0291826
-0.0323412
-0.031447
-0.0269329
-0.0195388
-0.0102309
-0.000107665
0.00973211
0.0180326
0.0239524
0.0269169
0.0271128
0.024673
0.0206982
0.0676298
0.089004
0.109581
0.127326
0.141028
0.149234
0.151303
0.147008
0.137195
0.122439
0.10368
0.0821523
0.0593008
0.0366651
0.0157637
-0.00202725
-0.0155855
-0.0241442
-0.027365
-0.0253789
-0.0187813
-0.00858191
0.00390284
0.0171803
0.0297595
0.0398798
0.0464307
0.0487215
0.0470545
0.0417014
0.0341701
0.0747114
0.098701
0.121982
0.14237
0.158527
0.1688
0.172457
0.169162
0.159765
0.144834
0.12536
0.102682
0.0783991
0.0542445
0.0319475
0.0130902
-0.00102724
-0.00951278
-0.0119745
-0.00857637
-3.60281e-05
0.012432
0.0272448
0.0426092
0.0567371
0.0674458
0.0734557
0.0739927
0.0695243
0.0604831
0.0487579
0.0729169
0.0967484
0.1202
0.141169
0.158334
0.170048
0.175498
0.17424
0.166977
0.154158
0.136676
0.115801
0.0931048
0.0703289
0.0492485
0.0315133
0.0184978
0.0111581
0.00992433
0.0146302
0.0245085
0.038247
0.0541282
0.0702012
0.0845207
0.0946287
0.0991765
0.097382
0.0898605
0.0771918
0.0615589
0.0634666
0.0847638
0.106201
0.125948
0.142826
0.155329
0.162607
0.164104
0.160232
0.151227
0.137749
0.120849
0.101906
0.0825188
0.0643665
0.0490542
0.0379533
0.0320486
0.0318173
0.037145
0.0473085
0.0610252
0.0765886
0.0920433
0.10543
0.11419
0.116988
0.113071
0.103147
0.0878819
0.0696077
0.0484042
0.0654804
0.0833109
0.100522
0.116167
0.12898
0.138098
0.142845
0.143231
0.139193
0.131049
0.119506
0.105623
0.090724
0.0762858
0.0637841
0.0545373
0.0495481
0.0493729
0.0540227
0.0629308
0.0749846
0.0886467
0.102116
0.113564
0.120528
0.121748
0.116513
0.10553
0.0894586
0.0705704
0.0309235
0.0430748
0.0566488
0.0708163
0.0849017
0.0979197
0.109002
0.117332
0.122458
0.123957
0.121736
0.116073
0.107619
0.0973487
0.0864662
0.0762727
0.0680145
0.0627255
0.0610885
0.063322
0.0691278
0.0776987
0.0878128
0.0979685
0.106594
0.111506
0.111563
0.106093
0.0956902
0.0808919
0.0637048
0.0139665
0.0214291
0.0309916
0.0423914
0.0552196
0.0687659
0.0821465
0.0943901
0.10456
0.111846
0.115703
0.115937
0.112747
0.106711
0.0987267
0.0898984
0.0813983
0.0743128
0.0694977
0.0674528
0.0682457
0.0714909
0.076406
0.0819111
0.0867989
0.0893233
0.0884944
0.0836719
0.0752336
0.0634965
0.0500124
-0.000124457
0.00361842
0.0101163
0.0196353
0.0319967
0.0467293
0.0629146
0.0794134
0.0948321
0.10797
0.117826
0.123726
0.125404
0.123031
0.117186
0.108768
0.0988774
0.0886684
0.0792002
0.0713019
0.0654723
0.0618258
0.0601065
0.0597433
0.0599711
0.0595895
0.0577935
0.0539764
0.0482315
0.0405892
0.0320113
-0.0102435
-0.00893688
-0.00426677
0.0044843
0.017321
0.0339624
0.0534424
0.0744543
0.0952096
0.114143
0.129822
0.141116
0.147312
0.148179
0.143979
0.135404
0.123474
0.109406
0.0944649
0.0798183
0.0664154
0.0549013
0.0455849
0.0384478
0.0332109
0.0292711
0.0260425
0.0229703
0.0198418
0.0163851
0.0129094
-0.0166784
-0.0166877
-0.0128001
-0.00393566
0.0100528
0.0290362
0.0520034
0.0775026
0.103435
0.127922
0.149153
0.16559
0.176104
0.180092
0.1775
0.168802
0.154921
0.137104
0.116787
0.095442
0.0744381
0.0549286
0.037774
0.0235064
0.0123395
0.0042644
-0.00105425
-0.00408691
-0.00532477
-0.00530971
-0.00437359
-0.0208431
-0.0215961
-0.0180296
-0.00878141
0.00641679
0.0275728
0.0536557
0.0831174
0.113644
0.143118
0.169427
0.190688
0.205417
0.212662
0.212067
0.203874
0.188867
0.168274
0.143633
0.116644
0.0890229
0.0623581
0.0380019
0.0169903
1.54158e-06
-0.0124285
-0.0203621
-0.0241477
-0.0244921
-0.0221393
-0.0179892
-0.0246888
-0.026336
-0.0233931
-0.0142737
0.00141415
0.0238261
0.0519608
0.0842467
0.118249
0.151703
0.182287
0.207858
0.226635
0.237362
0.239391
0.232715
0.217938
0.196195
0.169039
0.138297
0.10592
0.0738262
0.0437621
0.0171867
-0.00481634
-0.0212447
-0.0318823
-0.0369249
-0.0372147
-0.0336165
-0.0274878
-0.0299714
-0.0332975
-0.0319507
-0.024153
-0.00936831
0.0127377
0.0412585
0.0746872
0.110554
0.146549
0.180239
0.209311
0.231763
0.246079
0.251341
0.247281
0.234276
0.2133
0.185824
0.153691
0.118962
0.0837635
0.0501163
0.0198009
-0.00577253
-0.025225
-0.0380789
-0.0443617
-0.0449746
-0.0408273
-0.0336138
-0.0376486
-0.043763
-0.0453261
-0.0403797
-0.0282173
-0.00828828
0.0186632
0.0512839
0.0871418
0.123977
0.159346
0.190855
0.216355
0.234124
0.242999
0.242448
0.232592
0.214183
0.188524
0.157368
0.122774
0.0869501
0.0520761
0.0201472
-0.0071868
-0.0282559
-0.0423562
-0.0493504
-0.0501388
-0.0456208
-0.0377161
-0.047613
-0.0575404
-0.0632278
-0.0625365
-0.0545692
-0.0385304
-0.0149461
0.0150564
0.0491381
0.0851721
0.120787
0.153587
0.181343
0.202185
0.214733
0.218203
0.212444
0.197944
0.17578
0.147535
0.11517
0.0808756
0.0468898
0.0153281
-0.0119994
-0.0332034
-0.047399
-0.0543012
-0.0547731
-0.049671
-0.041055
-0.0588504
-0.0731786
-0.0837181
-0.0881456
-0.0853689
-0.0743359
-0.0553238
-0.0291923
0.00184899
0.03586
0.0705983
0.103724
0.132983
0.156396
0.172407
0.179995
0.17874
0.168852
0.151151
0.127001
0.0982092
0.0668815
0.0352434
0.0054628
-0.0205511
-0.0407423
-0.0540869
-0.0601757
-0.0598169
-0.0538117
-0.0443012
-0.069943
-0.0886591
-0.1041
-0.113755
-0.116349
-0.110582
-0.0964838
-0.0746401
-0.0471173
-0.0156504
0.0176704
0.050588
0.0808526
0.106408
0.125546
0.137033
0.140198
0.134981
0.121941
0.102218
0.0774402
0.0496035
0.0208872
-0.00652471
-0.0306587
-0.0493255
-0.0613911
-0.0663409
-0.0649236
-0.0578833
-0.0474077
-0.0796974
-0.102265
-0.122044
-0.136333
-0.1437
-0.142622
-0.132903
-0.11489
-0.0905142
-0.0613228
-0.0292672
0.00347299
0.0346537
0.0621514
0.0841217
0.0991415
0.106311
0.105327
0.096514
0.0808022
0.0596615
0.0349817
0.00889792
-0.0163943
-0.0388652
-0.0562106
-0.0671964
-0.0712118
-0.0689458
-0.0610875
-0.0498511
-0.0876273
-0.113255
-0.136477
-0.154395
-0.165447
-0.167914
-0.161422
-0.14613
-0.123867
-0.0960403
-0.0645061
-0.0314011
0.00101345
0.0305365
0.0551919
0.0733827
0.0840082
0.0865585
0.08116
0.0685777
0.0501584
0.0277202
0.00338001
-0.0206366
-0.0422325
-0.058996
-0.0695878
-0.0733002
-0.0707639
-0.0626131
-0.0510782
-0.0940642
-0.122039
-0.147837
-0.168358
-0.181929
-0.186657
-0.182038
-0.168109
-0.146645
-0.118979
-0.086931
-0.0526456
-0.0184405
0.0133841
0.0407158
0.061796
0.0753507
0.0807006
0.0778223
0.0673638
0.0505967
0.0293112
0.00564198
-0.018128
-0.0398156
-0.0569054
-0.0679426
-0.0721192
-0.0700082
-0.0621903
-0.0509027
-0.0998552
-0.129777
-0.15759
-0.179992
-0.195206
-0.201177
-0.197314
-0.18359
-0.161785
-0.133218
-0.0997317
-0.0635327
-0.027031
0.00735292
0.0373673
0.061105
0.0771466
0.084682
0.083583
0.0744267
0.0584537
0.0374639
0.013639
-0.0106604
-0.0331539
-0.0512305
-0.063318
-0.0685099
-0.067326
-0.0602968
-0.0496561
-0.105726
-0.137513
-0.167142
-0.191114
-0.207548
-0.214243
-0.210548
-0.196415
-0.173674
-0.143677
-0.108334
-0.0699394
-0.0310151
0.00589458
0.0384092
0.0644969
0.0826251
0.091891
0.0921
0.0837936
0.0682088
0.0471735
0.0229238
-0.00210464
-0.0255441
-0.0447093
-0.0579288
-0.0642154
-0.0640434
-0.0579018
-0.048005
-0.111611
-0.145271
-0.176668
-0.202151
-0.219744
-0.227121
-0.22359
-0.209103
-0.185564
-0.154375
-0.117513
-0.0773583
-0.0365258
0.00234499
0.0367825
0.0646726
0.0844131
0.0950474
0.0963454
0.0888313
0.0737428
0.0529246
0.0286429
0.00337289
-0.0204718
-0.0401738
-0.0540093
-0.0609448
-0.0614204
-0.0558969
-0.0465427
-0.116417
-0.15168
-0.184608
-0.211475
-0.23024
-0.238499
-0.235539
-0.22131
-0.197777
-0.166372
-0.129103
-0.0883866
-0.0468703
-0.00722089
0.0280686
0.0568676
0.077561
0.0891807
0.0914841
0.08498
0.0708865
0.0510241
0.0276314
0.00315435
-0.0200201
-0.0392118
-0.0527131
-0.0594941
-0.0599732
-0.0545932
-0.0454433
-0.117552
-0.153389
-0.186905
-0.214464
-0.234031
-0.243215
-0.241305
-0.228247
-0.206001
-0.175968
-0.140111
-0.100781
-0.0605462
-0.0219884
0.0124865
0.0408272
0.0614809
0.0735168
0.0766983
0.0715059
0.0590934
0.0411856
0.0199015
-0.00244538
-0.0235987
-0.0410187
-0.0531018
-0.0588812
-0.058757
-0.0531573
-0.0440195
-0.11261
-0.14715
-0.179568
-0.206469
-0.225933
-0.235701
-0.235107
-0.224091
-0.204499
-0.177623
-0.14527
-0.109597
-0.0729562
-0.0377022
-0.00602465
0.0202146
0.0396088
0.0513156
0.0551191
0.0514487
0.0413368
0.0263256
0.00830765
-0.0106539
-0.0285503
-0.0431047
-0.0529052
-0.0571018
-0.056073
-0.0502192
-0.0412787
-0.0989205
-0.129349
-0.158051
-0.182081
-0.199771
-0.209211
-0.20977
-0.201393
-0.185682
-0.163724
-0.13704
-0.107445
-0.0769091
-0.0474035
-0.0207548
0.00148711
0.0181532
0.0285434
0.0324771
0.0303051
0.022875
0.0114514
-0.00241543
-0.0170382
-0.0307781
-0.0417567
-0.0488303
-0.0513382
-0.0495983
-0.0439607
-0.0359058
-0.0767692
-0.100482
-0.12301
-0.142022
-0.156256
-0.164145
-0.165338
-0.159743
-0.148579
-0.132658
-0.113118
-0.0913119
-0.0687094
-0.0467732
-0.0268576
-0.0101098
0.00260589
0.0107714
0.0142507
0.0132978
0.0085292
0.00086612
-0.00856306
-0.0185311
-0.0278504
-0.0351458
-0.039615
-0.0407302
-0.0387821
-0.0340319
-0.0276445
-0.0502819
-0.0658013
-0.0807447
-0.0934347
-0.103098
-0.108631
-0.109827
-0.106702
-0.0999991
-0.0902291
-0.0781127
-0.0645042
-0.0503295
-0.0365078
-0.023888
-0.0131887
-0.00495151
0.000498232
0.00307249
0.00292459
0.000431872
-0.00384011
-0.00919872
-0.0148905
-0.0201895
-0.0242644
-0.0265952
-0.0268555
-0.0252668
-0.0219634
-0.0178028
0.0471655
0.0618519
0.0760249
0.0880744
0.0972026
0.102311
0.103008
0.0992272
0.0915532
0.0804063
0.0664572
0.0505694
0.0337411
0.0170265
0.00145965
-0.0120231
-0.0226538
-0.0298975
-0.0334972
-0.033498
-0.0302431
-0.0243429
-0.0166089
-0.00797196
0.000628333
0.00815595
0.0138302
0.0171437
0.0182182
0.0170993
0.014735
0.071533
0.0940594
0.115713
0.134318
0.148589
0.156977
0.158822
0.153876
0.143041
0.12692
0.106502
0.0830841
0.0581799
0.0334051
0.0103556
-0.00951709
-0.0250193
-0.0353196
-0.0400242
-0.0392183
-0.0334627
-0.0237445
-0.0113705
0.00216362
0.0153509
0.0264612
0.0343099
0.0381563
0.038215
0.0346695
0.0289541
0.0905417
0.119294
0.147021
0.1711
0.189873
0.201478
0.204876
0.19974
0.187148
0.167817
0.142962
0.11421
0.0834924
0.052889
0.0244717
0.000135779
-0.0185554
-0.0305143
-0.0352345
-0.0328532
-0.0241489
-0.0104758
0.00638053
0.0243831
0.0414841
0.0552593
0.0641366
0.0672419
0.0649214
0.0575502
0.0471085
0.098957
0.130819
0.161778
0.189014
0.210707
0.224748
0.229967
0.225893
0.2136
0.193795
0.16776
0.137269
0.104465
0.0716975
0.0413312
0.0155498
-0.00383465
-0.0155595
-0.0190438
-0.0144712
-0.00279296
0.0143479
0.0347898
0.056071
0.0757228
0.0907319
0.0992681
0.100363
0.0945592
0.0824511
0.0665384
0.0953617
0.126578
0.157289
0.184808
0.20734
0.222797
0.229909
0.22807
0.218151
0.20071
0.17691
0.148447
0.117441
0.0862718
0.0573832
0.0330633
0.0152343
0.00524984
0.00374036
0.0105101
0.0245243
0.0439868
0.0665272
0.0894426
0.110023
0.124857
0.131989
0.13045
0.120954
0.104299
0.0833864
0.0816864
0.109135
0.136708
0.162102
0.18372
0.199659
0.208627
0.209874
0.203885
0.190948
0.171935
0.14827
0.121841
0.0948592
0.0696602
0.0484905
0.0332799
0.0254247
0.0256146
0.0337102
0.0487155
0.0688453
0.0917119
0.114571
0.134659
0.148399
0.15382
0.149991
0.137731
0.117955
0.0937736
0.0608627
0.082401
0.104823
0.126437
0.145963
0.161799
0.172681
0.177692
0.176793
0.16989
0.157423
0.140378
0.120241
0.0988811
0.0783848
0.060843
0.0481257
0.0416569
0.0422276
0.0498536
0.0637273
0.0822651
0.103274
0.124184
0.142373
0.154364
0.158263
0.153183
0.139928
0.119404
0.0946523
0.0373508
0.052228
0.0688287
0.0861805
0.103364
0.119124
0.132231
0.14158
0.146521
0.146502
0.141432
0.131749
0.11842
0.102867
0.0868342
0.0721949
0.0607337
0.0539208
0.0527131
0.0573945
0.0675008
0.0818355
0.0986031
0.115607
0.130545
0.14029
0.143095
0.138094
0.125943
0.107381
0.085101
0.0151214
0.0238559
0.0351855
0.0488714
0.0643434
0.0806783
0.0966659
0.11098
0.122342
0.129695
0.132362
0.13017
0.1235
0.113266
0.100817
0.0877777
0.075844
0.0665603
0.0611155
0.0601646
0.063724
0.0711485
0.0812159
0.0922776
0.102502
0.109333
0.111229
0.107325
0.098001
0.0836947
0.0664905
-0.00278229
0.00127511
0.0087944
0.0202048
0.0352332
0.0532375
0.0729905
0.0929278
0.111177
0.126167
0.136625
0.14175
0.141317
0.135706
0.125853
0.11312
0.0991128
0.0854716
0.0736603
0.0647748
0.0594067
0.0575769
0.0587629
0.0619921
0.0660198
0.0690149
0.0696964
0.0672003
0.0615446
0.0527759
0.04219
-0.0150443
-0.0138371
-0.00834212
0.00242458
0.018421
0.0392222
0.0635569
0.0896231
0.115036
0.137743
0.155902
0.16811
0.173551
0.172079
0.164209
0.151031
0.134051
0.114996
0.0956088
0.0774422
0.0616957
0.0491048
0.0399082
0.0338774
0.0304228
0.0285185
0.0271964
0.0256194
0.02342
0.0202302
0.0164759
-0.0222149
-0.0223104
-0.0173792
-0.00600865
0.0119348
0.0361957
0.0654539
0.0977024
0.130159
0.160353
0.185945
0.204988
0.21612
0.218693
0.212808
0.199264
0.179433
0.15509
0.128208
0.100752
0.0744924
0.0508533
0.0308235
0.0149222
0.00323137
-0.00446773
-0.00878397
-0.0104771
-0.0102637
-0.00888231
-0.00675546
-0.0262855
-0.0269078
-0.0219108
-0.00956492
0.0104104
0.0379119
0.071601
0.109335
0.148064
0.185001
0.217411
0.242892
0.259607
0.266447
0.263105
0.250068
0.228526
0.20022
0.167265
0.131935
0.0964692
0.062886
0.0328439
0.00755067
-0.0122753
-0.0261084
-0.0341689
-0.0370794
-0.0358226
-0.0314156
-0.0250235
-0.0298678
-0.0312113
-0.0265566
-0.0139377
0.00707566
0.0365474
0.0731874
0.114821
0.158258
0.200529
0.238626
0.269811
0.291857
0.303252
0.303299
0.292151
0.270748
0.240708
0.204161
0.163551
0.121434
0.0802765
0.042274
0.00921149
-0.017636
-0.0371043
-0.0490221
-0.0538246
-0.0526551
-0.0466973
-0.0377033
-0.0352256
-0.0383058
-0.0352795
-0.0239914
-0.00383621
0.0254548
0.0627306
0.105906
0.151779
0.197334
0.239436
0.275136
0.301927
0.317958
0.322175
0.314378
0.295205
0.266049
0.228922
0.186284
0.140837
0.0953218
0.0523064
0.0140111
-0.0178434
-0.0415785
-0.0566594
-0.0633064
-0.0627221
-0.0561522
-0.0457672
-0.0435207
-0.0497463
-0.0500539
-0.0421194
-0.0251311
0.00142742
0.0366399
0.0786337
0.124298
0.170712
0.214757
0.253404
0.283969
0.304349
0.313168
0.309879
0.294772
0.268935
0.234148
0.192736
0.147388
0.100947
0.0561874
0.0156151
-0.0187259
-0.0447634
-0.0616532
-0.0694012
-0.0691898
-0.0622496
-0.0510187
-0.0545261
-0.0651623
-0.0703436
-0.0675832
-0.0558417
-0.0343245
-0.00363541
0.0346627
0.0776349
0.122574
0.166494
0.206401
0.239543
0.263634
0.277035
0.278865
0.26905
0.248319
0.218136
0.180584
0.138205
0.0938038
0.0502197
0.0101111
-0.0242679
-0.0505532
-0.0676565
-0.075393
-0.0748757
-0.0672752
-0.0551836
-0.0669015
-0.0826301
-0.0935667
-0.0970627
-0.091851
-0.0768502
-0.0523107
-0.0194304
0.0190871
0.0608232
0.103009
0.142769
0.177357
0.204378
0.221974
0.228963
0.224914
0.21018
0.185867
0.153751
0.11615
0.0757371
0.0353186
-0.00239026
-0.0350111
-0.0599619
-0.0759709
-0.0826949
-0.0811556
-0.0724471
-0.0592426
-0.0788969
-0.0996384
-0.116334
-0.126172
-0.12768
-0.119504
-0.101543
-0.0746267
-0.0412065
-0.00338866
0.0363057
0.0751588
0.110469
0.139775
0.161041
0.172818
0.174342
0.165605
0.147357
0.121057
0.0887713
0.0530071
0.0164945
-0.0180427
-0.0481493
-0.0710697
-0.0853893
-0.0906327
-0.0877282
-0.0776933
-0.0632441
-0.0891794
-0.114231
-0.135934
-0.15131
-0.158709
-0.156537
-0.14438
-0.122745
-0.0938509
-0.0595203
-0.0220502
0.0159844
0.0519271
0.0832565
0.107781
0.123811
0.130288
0.126881
0.114017
0.0928748
0.065293
0.03363
0.000547091
-0.0312238
-0.0591578
-0.0803455
-0.0932422
-0.097252
-0.0932166
-0.0820833
-0.0665965
-0.0974262
-0.125843
-0.151445
-0.171066
-0.182914
-0.185179
-0.177201
-0.159242
-0.133344
-0.101122
-0.0647178
-0.0266237
0.0105063
0.0440688
0.0717133
0.0915309
0.102203
0.103124
0.0944628
0.077174
0.052934
0.0240061
-0.00697116
-0.0372233
-0.0641325
-0.0846366
-0.0970516
-0.100658
-0.096219
-0.0846191
-0.0686288
-0.104397
-0.135429
-0.163944
-0.186562
-0.20136
-0.206329
-0.200633
-0.184379
-0.159519
-0.127559
-0.0905877
-0.0510989
-0.0118134
0.0245397
0.055434
0.0787498
0.0929426
0.0971863
0.0914577
0.0765652
0.0540972
0.0262937
-0.00416784
-0.0344207
-0.061718
-0.0828391
-0.0959418
-0.100173
-0.0962291
-0.0849362
-0.0690921
-0.111454
-0.144838
-0.175758
-0.200587
-0.217266
-0.22359
-0.218603
-0.202342
-0.176764
-0.143373
-0.104299
-0.0621301
-0.0197226
0.0200225
0.0543844
0.081041
0.0982541
0.105029
0.101216
0.0875463
0.0655907
0.0376302
0.00643422
-0.024998
-0.0537638
-0.0764831
-0.091147
-0.0967653
-0.0939813
-0.0835696
-0.0683533
-0.119666
-0.155592
-0.188924
-0.215759
-0.23389
-0.240918
-0.235799
-0.218558
-0.191251
-0.155452
-0.11341
-0.0678645
-0.0218546
0.0215253
0.0593599
0.0891456
0.108988
0.117773
0.115277
0.10221
0.0801681
0.0515095
0.019117
-0.0138698
-0.044396
-0.0689411
-0.0853473
-0.0925064
-0.0910207
-0.0816272
-0.0671617
-0.128897
-0.167663
-0.203615
-0.232601
-0.252255
-0.259996
-0.254723
-0.236475
-0.207454
-0.16934
-0.124522
-0.0759021
-0.026692
0.0198428
0.06063
0.0930318
0.115049
0.125498
0.124122
0.111634
0.0896711
0.0606555
0.0275586
-0.00638015
-0.0380025
-0.0637003
-0.0812229
-0.089386
-0.0887654
-0.0800763
-0.0661371
-0.137503
-0.178994
-0.21749
-0.248658
-0.27001
-0.278827
-0.273971
-0.255495
-0.225747
-0.186489
-0.140211
-0.0899219
-0.0389361
0.0093912
0.051915
0.0859446
0.109446
0.121218
0.120999
0.109508
0.0883897
0.0600805
0.0275619
-0.00591809
-0.0371938
-0.0626625
-0.0800699
-0.0882192
-0.0876717
-0.0791306
-0.0653511
-0.141772
-0.184787
-0.224755
-0.257358
-0.280066
-0.290133
-0.286421
-0.268988
-0.240238
-0.201943
-0.156587
-0.107154
-0.0569146
-0.00916574
0.0330177
0.0670161
0.090858
0.103385
0.104351
0.0944558
0.075289
0.0491947
0.0190363
-0.0120742
-0.0411083
-0.064615
-0.0804545
-0.0874936
-0.0862786
-0.0774969
-0.0637411
-0.138275
-0.180465
-0.219807
-0.252193
-0.275204
-0.286204
-0.284124
-0.269009
-0.24318
-0.208305
-0.166711
-0.121184
-0.0747608
-0.0304902
0.00879651
0.0406976
0.0634131
0.0758914
0.0779142
0.0701237
0.0539677
0.0315721
0.00552754
-0.0213574
-0.046356
-0.0663443
-0.0794181
-0.0845752
-0.0823376
-0.0733512
-0.0599691
-0.123234
-0.160944
-0.196268
-0.225612
-0.246843
-0.257713
-0.257217
-0.2454
-0.224306
-0.195368
-0.160574
-0.122299
-0.0831223
-0.0456237
-0.0121905
0.0151599
0.0349204
0.0462141
0.0488622
0.0434027
0.0310425
0.0135483
-0.00693221
-0.0280761
-0.0476346
-0.0630062
-0.0726316
-0.0757366
-0.0727584
-0.0642646
-0.0522624
-0.0966996
-0.126445
-0.154491
-0.177964
-0.195242
-0.204462
-0.205016
-0.196874
-0.181616
-0.160327
-0.134516
-0.105975
-0.0766488
-0.0484732
-0.0232356
-0.00244239
0.0127839
0.0217919
0.0244492
0.0211546
0.0127999
0.00068965
-0.0135936
-0.0283402
-0.0419017
-0.0523551
-0.0585954
-0.059989
-0.0569372
-0.0498632
-0.0403496
-0.064042
-0.0837534
-0.102563
-0.118403
-0.130265
-0.136813
-0.137684
-0.132951
-0.123595
-0.11031
-0.0940639
-0.0760054
-0.057376
-0.0394074
-0.0232337
-0.00980942
0.000155424
0.00624885
0.00838606