# vtk DataFile Version 2.0
Func
ASCII
DATASET RECTILINEAR_GRID
DIMENSIONS 31 31 31
X_COORDINATES 31 double
-9.67742
-9.03226
-8.3871
-7.74194
-7.09677
-6.45161
-5.80645
-5.16129
-4.51613
-3.87097
-3.22581
-2.58065
-1.93548
-1.29032
-0.645161
0
0.645161
1.29032
1.93548
2.58065
3.22581
3.87097
4.51613
5.16129
5.80645
6.45161
7.09677
7.74194
8.3871
9.03226
9.67742
Y_COORDINATES 31 double
-9.67742
-9.03226
-8.3871
-7.74194
-7.09677
-6.45161
-5.80645
-5.16129
-4.51613
-3.87097
-3.22581
-2.58065
-1.93548
-1.29032
-0.645161
0
0.645161
1.29032
1.93548
2.58065
3.22581
3.87097
4.51613
5.16129
5.80645
6.45161
7.09677
7.74194
8.3871
9.03226
9.67742
Z_COORDINATES 31 double
-9.67742
-9.03226
-8.3871
-7.74194
-7.09677
-6.45161
-5.80645
-5.16129
-4.51613
-3.87097
-3.22581
-2.58065
-1.93548
-1.29032
-0.645161
0
0.645161
1.29032
1.93548
2.58065
3.22581
3.87097
4.51613
5.16129
5.80645
6.45161
7.09677
7.74194
8.3871
9.03226
9.67742
POINT_DATA 29791
SCALARS data double 1
LOOKUP_TABLE default
0.0266339
0.0357143
0.0449638
0.0537183
0.0616338
0.0681781
0.073172
0.0765267
0.0784763
0.0791237
0.0786628
0.0773558
0.0755135
0.073463
0.0715183
0.0699505
0.0689613
0.0686586
0.0690413
0.0699892
0.0712685
0.072549
0.0734428
0.0735417
0.0724761
0.0696577
0.0649079
0.0581928
0.0499937
0.0406173
0.0309705
0.0388585
0.0520655
0.0654123
0.0779907
0.0892324
0.0983833
0.105134
0.109286
0.111189
0.110994
0.109001
0.105628
0.101387
0.0968255
0.0924874
0.0888558
0.0863088
0.0850766
0.0852108
0.0865646
0.0887988
0.0914069
0.0937723
0.0952307
0.0951593
0.0925928
0.0872466
0.0790135
0.0684639
0.0560706
0.0429619
0.0472763
0.0631874
0.07913
0.0939712
0.106962
0.117193
0.124168
0.127643
0.128043
0.125569
0.120634
0.113826
0.105871
0.0975639
0.0897059
0.0830266
0.0781182
0.0753705
0.0749244
0.0766395
0.0800975
0.0846351
0.0894162
0.093518
0.0960476
0.0957184
0.0920082
0.0847704
0.0745126
0.0617525
0.0477607
0.0497446
0.0662914
0.0826565
0.0975595
0.110145
0.119356
0.12464
0.125703
0.122994
0.116765
0.107536
0.0960555
0.0832556
0.0701747
0.0578716
0.0473314
0.0393768
0.0345825
0.0332108
0.035168
0.0400021
0.0469386
0.0549636
0.062927
0.0696826
0.0737195
0.0742775
0.0709724
0.0642003
0.0543819
0.0427762
0.0466655
0.0618941
0.076636
0.0895973
0.0998674
0.106357
0.108462
0.105864
0.0989928
0.0881409
0.0739117
0.0571851
0.039067
0.0208045
0.00368711
-0.0110644
-0.0224053
-0.0295708
-0.0321569
-0.0301752
-0.0240624
-0.0146459
-0.00305514
0.00939094
0.0213394
0.03116
0.0378398
0.0407575
0.0400463
0.0359415
0.0295158
0.0399949
0.052705
0.0646402
0.0745731
0.0815904
0.0846325
0.0830789
0.0765917
0.0655396
0.0502342
0.0313261
0.00977877
-0.0131815
-0.0361542
-0.0576717
-0.0763215
-0.0908691
-0.100376
-0.104296
-0.102538
-0.0954848
-0.0839624
-0.069154
-0.0524809
-0.0354412
-0.0196919
-0.00647041
0.00336224
0.00963552
0.0123491
0.0123276
0.0316857
0.0414575
0.0502397
0.0569579
0.0607369
0.0605961
0.0559166
0.0463408
0.0321434
0.01362
-0.0085814
-0.0334773
-0.0597951
-0.086059
-0.1107
-0.132186
-0.14915
-0.160523
-0.165636
-0.164296
-0.156806
-0.14395
-0.126902
-0.107116
-0.0861616
-0.0656512
-0.0469825
-0.0312079
-0.0187721
-0.00989555
-0.00403098
0.0238089
0.0309592
0.0370468
0.0411921
0.0425853
0.0403512
0.0338832
0.0227994
0.00726445
-0.0124753
-0.0358251
-0.0618469
-0.0892997
-0.116719
-0.142524
-0.165149
-0.183175
-0.195466
-0.201276
-0.200333
-0.192865
-0.179587
-0.161628
-0.140411
-0.117505
-0.0944458
-0.0727005
-0.0534249
-0.0372344
-0.0244956
-0.0148589
0.0176332
0.0228947
0.0271752
0.0297956
0.0300291
0.027115
0.0204706
0.00969046
-0.00516538
-0.0239216
-0.0460734
-0.0707818
-0.0969055
-0.123071
-0.147777
-0.169512
-0.186896
-0.198804
-0.20448
-0.203619
-0.196399
-0.183474
-0.165901
-0.145038
-0.12239
-0.0994118
-0.0775441
-0.0579379
-0.041233
-0.0278294
-0.0174405
0.0139091
0.018188
0.0216841
0.0238816
0.024143
0.021816
0.0163541
0.00734489
-0.0052244
-0.0212465
-0.0403147
-0.0617119
-0.084435
-0.107257
-0.128821
-0.147752
-0.162787
-0.172895
-0.177386
-0.175985
-0.16887
-0.156662
-0.140359
-0.121238
-0.100705
-0.0801616
-0.0609354
-0.0440694
-0.0300743
-0.0192611
-0.0112465
0.0129766
0.017168
0.0208077
0.0234623
0.0245759
0.0235805
0.019984
0.0134003
0.00380487
-0.00872715
-0.0238561
-0.0409661
-0.0591874
-0.0774515
-0.094576
-0.10937
-0.120748
-0.127841
-0.130095
-0.127338
-0.11981
-0.108154
-0.0933438
-0.0765923
-0.0592072
-0.0425758
-0.0278605
-0.0159226
-0.00701885
-0.00127016
0.00194799
0.0150582
0.0199942
0.0245351
0.0282109
0.0305208
0.0309375
0.0290425
0.0245235
0.0174331
0.00788273
-0.00378254
-0.0169815
-0.0309224
-0.0446581
-0.0571654
-0.0674406
-0.0746012
-0.0779835
-0.0772243
-0.0723175
-0.0636338
-0.0518993
-0.0381222
-0.0234948
-0.00925329
0.00318298
0.0128257
0.0190262
0.0218481
0.0214175
0.0186925
0.0204621
0.0269686
0.0330635
0.0380925
0.0415607
0.0429173
0.0418316
0.0381185
0.0320156
0.023763
0.0138155
0.00282519
-0.00839629
-0.0189404
-0.0278803
-0.0343611
-0.0376883
-0.0374111
-0.0333856
-0.0258163
-0.0152592
-0.00258622
0.011099
0.0245653
0.0365977
0.0457063
0.0510457
0.0521627
0.0494367
0.0432428
0.0348933
0.0295525
0.0385312
0.0468475
0.0535043
0.0579423
0.0595055
0.0579538
0.0532763
0.0460094
0.036621
0.0257931
0.0143728
0.00331471
-0.00639893
-0.013843
-0.0182371
-0.0190244
-0.0159402
-0.00905653
0.00119525
0.0140417
0.02842
0.0430789
0.0566912
0.0680046
0.0754379
0.0782284
0.0760622
0.0695652
0.0593121
0.0469153
0.0425014
0.0549449
0.0662382
0.074895
0.0802108
0.0813336
0.0781034
0.070712
0.0600952
0.0470339
0.0325426
0.0177804
0.00396495
-0.00773216
-0.0162822
-0.0208891
-0.0210613
-0.0166673
-0.00796223
0.00441072
0.0194586
0.0359119
0.0523424
0.0672881
0.0794111
0.0870415
0.08943
0.0863247
0.0784865
0.0666045
0.0524778
0.0589144
0.0757922
0.0908555
0.102022
0.108367
0.10876
0.103099
0.0917813
0.0762084
0.0575254
0.0371473
0.0166254
-0.00247163
-0.0186932
-0.0308193
-0.0379561
-0.0396028
-0.0356967
-0.0266226
-0.0131942
0.00340609
0.02172
0.0401475
0.0570835
0.0710821
0.0804134
0.0842836
0.0824285
0.0756202
0.0645654
0.0511056
0.0775208
0.0995384
0.119013
0.133225
0.140979
0.140819
0.132666
0.117102
0.0960099
0.0708995
0.0435978
0.0160688
-0.00973837
-0.0320566
-0.04943
-0.0608169
-0.0656517
-0.0638822
-0.0559635
-0.0428202
-0.0257681
-0.00640335
0.0135439
0.0323551
0.04849
0.0602097
0.0666494
0.0674807
0.0633836
0.0549976
0.0440638
0.0961048
0.123404
0.147504
0.165094
0.174706
0.17455
0.164549
0.145424
0.11949
0.0885692
0.0548453
0.020644
-0.0117486
-0.0402801
-0.0632748
-0.0795413
-0.0884306
-0.0898641
-0.0843152
-0.0727558
-0.0565618
-0.0373914
-0.0170311
0.00275271
0.0203775
0.0341628
0.0431864
0.0470418
0.0462561
0.0413487
0.0338481
0.111772
0.143684
0.171944
0.19279
0.204528
0.205101
0.194413
0.173272
0.144309
0.10956
0.0714467
0.0325358
-0.00466606
-0.0379226
-0.065418
-0.0858652
-0.0985559
-0.10338
-0.100798
-0.0917692
-0.0776546
-0.0600843
-0.0408066
-0.0215427
-0.00383458
0.0107714
0.0213485
0.0274404
0.0294132
0.0276537
0.0234159
0.121523
0.156479
0.187631
0.210985
0.224727
0.226652
0.216648
0.195551
0.166149
0.130551
0.0912564
0.0508968
0.0120273
-0.0230898
-0.0526318
-0.0753167
-0.0904425
-0.0978957
-0.0981116
-0.0919991
-0.0808326
-0.0661255
-0.0494867
-0.0324873
-0.0165278
-0.00294714
0.00740605
0.0140872
0.017343
0.0174535
0.0153919
0.122975
0.158643
0.190699
0.215183
0.230312
0.233897
0.225829
0.206923
0.179931
0.146886
0.11018
0.0723121
0.0356836
0.00239561
-0.0258849
-0.0480102
-0.0633764
-0.0719179
-0.074059
-0.0706328
-0.062775
-0.0518058
-0.0391024
-0.0259854
-0.013613
-0.00305568
0.00501033
0.0102333
0.0128147
0.01298
0.0114641
0.115015
0.148659
0.179196
0.202997
0.218461
0.223603
0.218347
0.203449
0.181436
0.154122
0.123619
0.092101
0.0616214
0.0339368
0.0103976
-0.00811395
-0.021189
-0.0288717
-0.0316009
-0.030128
-0.025417
-0.01854
-0.0105726
-0.00250609
0.00482679
0.0106657
0.0145917
0.0164261
0.0164097
0.0147756
0.012094
0.098181
0.127144
0.153748
0.174946
0.189465
0.19569
0.193614
0.183912
0.168719
0.149524
0.12802
0.105903
0.0847241
0.0657506
0.0498882
0.0376483
0.0291645
0.0242297
0.022362
0.0228861
0.0250229
0.027976
0.0310102
0.033509
0.0350156
0.0350957
0.0336453
0.0307196
0.0266708
0.0217942
0.0165794
0.0746372
0.0968562
0.117586
0.134552
0.146906
0.153519
0.154485
0.150383
0.14285
0.132985
0.121979
0.110963
0.100895
0.0924727
0.086086
0.0818194
0.079488
0.078691
0.0788844
0.0794585
0.079815
0.0794334
0.0779219
0.0750444
0.0707284
0.0648537
0.0576487
0.0494299
0.0407026
0.0318587
0.0233806
0.047768
0.062161
0.0759334
0.0876656
0.0969691
0.103253
0.10672
0.107853
0.10775
0.107103
0.106588
0.106754
0.107963
0.110333
0.113743
0.117855
0.122168
0.126092
0.129019
0.130394
0.129784
0.126919
0.121719
0.114294
0.104919
0.0937483
0.0813159
0.0681856
0.05502
0.0423141
0.030592
0.0214101
0.0280449
0.0348101
0.0411173
0.0470053
0.0523927
0.0575824
0.0629657
0.0691265
0.0763849
0.0849477
0.094845
0.105904
0.117742
0.129793
0.14136
0.151683
0.160016
0.165703
0.168243
0.167342
0.162934
0.155194
0.144505
0.131419
0.116301
0.0999221
0.0830434
0.0664528
0.050729
0.0364518
-0.000687897
-0.000626165
0.000127147
0.00166485
0.00435951
0.00853877
0.0145745
0.0227712
0.0332872
0.0461445
0.0611823
0.078033
0.0961257
0.114712
0.132916
0.149799
0.164436
0.175995
0.18381
0.187436
0.186687
0.181647
0.17266
0.160288
0.145255
0.128054
0.109594
0.090748
0.0723678
0.0550727
0.0394868
-0.0159207
-0.0204009
-0.0238951
-0.02582
-0.0256045
-0.0226589
-0.0165912
-0.00717604
0.00544563
0.0210963
0.0393814
0.0596937
0.081238
0.103076
0.124188
0.14354
0.160163
0.173225
0.182097
0.186397
0.186016
0.181124
0.172143
0.159704
0.144585
0.127318
0.108836
0.0900214
0.0717159
0.0545272
0.0390826
-0.0228569
-0.0293815
-0.0348961
-0.0385777
-0.0398021
-0.0379109
-0.0325252
-0.0234955
-0.0111184
0.00433749
0.0223916
0.0423723
0.0634499
0.0846882
0.105103
0.123727
0.139676
0.152212
0.160795
0.165117
0.16512
0.160994
0.153151
0.142178
0.128788
0.113461
0.0970328
0.0803113
0.0640254
0.0487195
0.0349233
-0.0220224
-0.0283267
-0.0338133
-0.0376502
-0.0393064
-0.0381637
-0.0339726
-0.0266279
-0.0164448
-0.00368749
0.0112061
0.0276506
0.0449443
0.0623141
0.0789633
0.0941225
0.107099
0.117322
0.124384
0.128062
0.128325
0.125334
0.119416
0.111033
0.100738
0.0888982
0.0761695
0.0631463
0.0504217
0.0384188
0.0275363
-0.0160435
-0.0205907
-0.0246462
-0.0275055
-0.0288343
-0.0281795
-0.025384
-0.0204177
-0.0135117
-0.00486284
0.00521557
0.016317
0.0279628
0.0396348
0.0508059
0.0609725
0.0696857
0.0765795
0.0813943
0.0839895
0.0843481
0.0825726
0.0788718
0.0735391
0.066924
0.05926
0.0509515
0.0423672
0.033931
0.0259274
0.0186036
0.0377139
0.0508166
0.0641679
0.0770081
0.0887834
0.0987718
0.10666
0.112207
0.115697
0.117214
0.116976
0.115318
0.112664
0.109486
0.106262
0.103425
0.101322
0.100172
0.100037
0.100797
0.102157
0.103666
0.104772
0.104876
0.103419
0.0994848
0.0928374
0.0834137
0.0718077
0.0585006
0.0446304
0.054044
0.0727546
0.0917258
0.109872
0.126341
0.140155
0.150779
0.157737
0.161454
0.162043
0.159836
0.155363
0.149312
0.142467
0.13564
0.129584
0.124926
0.122091
0.121251
0.122281
0.124761
0.128009
0.131156
0.133239
0.133331
0.129933
0.1227
0.111468
0.0968637
0.0795624
0.0610355
0.0648216
0.0870447
0.109426
0.1306
0.149459
0.164839
0.175909
0.182081
0.183852
0.181371
0.175097
0.165778
0.154394
0.142079
0.130023
0.119351
0.111024
0.105727
0.103792
0.10513
0.109231
0.115202
0.121865
0.127881
0.131924
0.132014
0.127452
0.118015
0.104191
0.0867016
0.0672178
0.067208
0.0899938
0.112678
0.133725
0.151866
0.165729
0.174399
0.177187
0.174587
0.166795
0.154402
0.138366
0.11996
0.100667
0.0820587
0.0656488
0.0527532
0.04435
0.0409687
0.0426083
0.0487218
0.0582596
0.0697821
0.0816108
0.0920354
0.0987361
0.100643
0.0971532
0.0886018
0.075576
0.059725
0.0616931
0.0822664
0.102317
0.120326
0.134948
0.144761
0.148779
0.146264
0.137651
0.123178
0.103544
0.0798885
0.053732
0.0268656
0.0012058
-0.0213764
-0.0392253
-0.05107
-0.0561613
-0.0543721
-0.0462252
-0.0328531
-0.0158762
0.00276409
0.0210353
0.0364342
0.0474781
0.053188
0.0535507
0.0488862
0.0405619
0.0512163
0.0679187
0.0836784
0.0971104
0.106868
0.111557
0.110174
0.101959
0.0872347
0.0662566
0.0397872
0.00908672
-0.0241459
-0.0578891
-0.0899564
-0.118185
-0.140632
-0.155762
-0.162615
-0.160912
-0.151108
-0.134346
-0.112345
-0.0872197
-0.0612379
-0.0369497
-0.0162186
-0.000406182
0.0100898
0.0152574
0.0160812
0.0384977
0.0507353
0.0617219
0.0703088
0.0752107
0.0751314
0.0690792
0.0562816
0.0369045
0.0111802
-0.0201325
-0.0557416
-0.093875
-0.132395
-0.168959
-0.201222
-0.227041
-0.244689
-0.253027
-0.251635
-0.240864
-0.22181
-0.196204
-0.166228
-0.134275
-0.102839
-0.0740647
-0.0496192
-0.0302399
-0.0162476
-0.00706072
0.026478
0.034725
0.0416163
0.0462936
0.0475758
0.0443049
0.0355204
0.0204322
-0.000967236
-0.0285154
-0.0615281
-0.0987768
-0.138531
-0.178666
-0.21682
-0.250594
-0.27777
-0.296525
-0.305615
-0.304512
-0.293469
-0.273501
-0.246284
-0.213975
-0.178983
-0.143693
-0.110383
-0.0808872
-0.056147
-0.0366844
-0.0222012
0.0169667
0.0222939
0.0263853
0.0286786
0.0281251
0.0237249
0.0145657
-0.000158519
-0.0206168
-0.046747
-0.0779942
-0.113272
-0.150997
-0.189178
-0.225569
-0.257859
-0.283888
-0.301859
-0.310519
-0.309302
-0.298397
-0.278739
-0.251911
-0.21998
-0.185268
-0.150048
-0.116565
-0.0866473
-0.0612536
-0.0409463
-0.0255099
0.0110297
0.0147574
0.0175344
0.0190469
0.0183881
0.0147153
0.00718366
-0.00500854
-0.0221414
-0.044249
-0.0709194
-0.101247
-0.133854
-0.16697
-0.198571
-0.226555
-0.248946
-0.264092
-0.270845
-0.268693
-0.257827
-0.239139
-0.214123
-0.184723
-0.153116
-0.121496
-0.0919243
-0.0660575
-0.0446778
-0.0282126
-0.0162975
0.0091861
0.0126293
0.0154453
0.0174649
0.0179089
0.0160649
0.0111823
0.00250846
-0.0102544
-0.027185
-0.0479706
-0.0718596
-0.0976787
-0.123903
-0.14878
-0.17049
-0.187335
-0.197913
-0.201287
-0.197098
-0.18563
-0.167798
-0.145052
-0.119232
-0.0923508
-0.0665809
-0.0437026
-0.025079
-0.0111578
-0.00208653
0.00285321
0.0118271
0.0162299
0.0202067
0.0235745
0.0256379
0.0257593
0.0233105
0.0176523
0.00860489
-0.00385437
-0.0194072
-0.0373603
-0.056668
-0.0760008
-0.0938586
-0.10872
-0.119201
-0.124219
-0.123126
-0.115812
-0.102746
-0.0849568
-0.0639238
-0.0414347
-0.0193738
4.68365e-05
0.0153572
0.0255391
0.0305641
0.0306469
0.0269866
0.0194948
0.0261189
0.032248
0.037484
0.041136
0.0425555
0.0412563
0.0367849
0.0292464
0.0188118
0.00595851
-0.00852439
-0.0235763
-0.0379439
-0.0502928
-0.0593438
-0.0640137
-0.0635502
-0.0576404
-0.0464882
-0.0308298
-0.0118914
0.00872879
0.0292143
0.0477418
0.0620107
0.0708197
0.0734726
0.0703557
0.0620501
0.0502574
0.0328081
0.0430469
0.0523622
0.059916
0.0649122
0.0665801
0.0645777
0.058699
0.0495126
0.0375321
0.0235694
0.0086943
-0.00583643
-0.0186816
-0.0285337
-0.0342509
-0.0349789
-0.0302616
-0.0201191
-0.00509536
0.0137572
0.034947
0.0566814
0.0770328
0.0941555
0.105638
0.110453
0.108142
0.0994204
0.0851662
0.0674991
0.0520642
0.0674518
0.0811261
0.0915938
0.0978289
0.0988156
0.0943363
0.0844679
0.0704034
0.0531292
0.0339512
0.0143955
-0.00390501
-0.0193493
-0.0305022
-0.036228
-0.0357974
-0.0289768
-0.0160751
0.00204082
0.0239952
0.0480031
0.0720323
0.0939846
0.11192
0.123326
0.127238
0.123313
0.112458
0.0957275
0.0754924
0.0766684
0.0986936
0.117948
0.132117
0.13983
0.139716
0.131643
0.115971
0.0946271
0.0691513
0.0414495
0.0136275
-0.0121721
-0.0339529
-0.0500217
-0.0591278
-0.0605598
-0.0542146
-0.0406167
-0.0209001
0.00327456
0.0298488
0.0565529
0.0811011
0.101424
0.114953
0.120686
0.11828
0.108681
0.0929781
0.0735892
0.104677
0.134413
0.160222
0.178894
0.18864
0.187666
0.175876
0.153879
0.124368
0.0894426
0.0516312
0.013656
-0.0217824
-0.0522332
-0.0756765
-0.0906717
-0.0964441
-0.0929379
-0.0808093
-0.0613772
-0.0365107
-0.00847306
0.0202825
0.0473208
0.0704568
0.0871456
0.0962909
0.0974699
0.091535
0.0794906
0.0635993
0.132713
0.170368
0.20305
0.2267
0.239108
0.238055
0.223439
0.196057
0.159298
0.11575
0.0684882
0.0207795
-0.0241761
-0.0635149
-0.09491
-0.116726
-0.128097
-0.12896
-0.12003
-0.102718
-0.079
-0.0512379
-0.0219658
0.00632254
0.0313975
0.0508355
0.0634563
0.0687308
0.0673414
0.0601285
0.0490461
0.156399
0.200952
0.239797
0.268204
0.283626
0.2835
0.267693
0.237119
0.195697
0.146352
0.0925373
0.0378905
-0.0140558
-0.0601699
-0.0979318
-0.125587
-0.14221
-0.147724
-0.142849
-0.12901
-0.108176
-0.0826799
-0.0550008
-0.0275597
-0.00251305
0.0179443
0.0326209
0.040919
0.0433379
0.0405326
0.0340653
0.171229
0.220319
0.26342
0.295436
0.313643
0.315293
0.300236
0.269426
0.227064
0.176212
0.120461
0.0635649
0.00913838
-0.0396475
-0.0802711
-0.111002
-0.130947
-0.140048
-0.139019
-0.129229
-0.112538
-0.0911195
-0.0672505
-0.0431274
-0.0206888
-0.00179761
0.0124643
0.0215188
0.0257295
0.025597
0.0222854
0.173669
0.223814
0.268204
0.301765
0.321815
0.325642
0.313107
0.285157
0.245971
0.198526
0.14628
0.0928115
0.0415217
-0.00465049
-0.0434156
-0.0732519
-0.0934247
-0.103966
-0.105593
-0.099579
-0.0875945
-0.0715351
-0.0533401
-0.0348349
-0.0175946
-0.00306421
0.00792426
0.0149292
0.0182648
0.0183456
0.0159948
0.162125
0.209266
0.25137
0.283793
0.304137
0.309961
0.301197
0.278742
0.246455
0.207016
0.163493
0.119004
0.0764541
0.038283
0.00631699
-0.0183154
-0.0351735
-0.0444598
-0.0469219
-0.0437221
-0.0362842
-0.0261414
-0.0147888
-0.00356401
0.00644163
0.0142576
0.0194306
0.0217701
0.0216383
0.0194456
0.0157719
0.137482
0.177718
0.214004
0.242495
0.261286
0.268426
0.263971
0.248751
0.226046
0.198074
0.167305
0.136173
0.106857
0.0810902
0.0600525
0.0443329
0.03397
0.0285231
0.0271819
0.0288974
0.03252
0.0369257
0.0411245
0.0443346
0.0460209
0.0457075
0.0434069
0.0392646
0.0337723
0.0274079
0.0206161
0.103042
0.133381
0.161058
0.183289
0.198807
0.2063
0.205992
0.19864
0.186766
0.172025
0.156166
0.140806
0.127272
0.11647
0.108837
0.104348
0.102585
0.102835
0.104206
0.105757
0.106613
0.106067
0.10364
0.0991152
0.092525
0.0838663
0.0736439
0.0623737
0.0507217
0.0392769
0.0284423
0.0638765
0.0828023
0.100368
0.114964
0.126014
0.132902
0.136032
0.136085
0.134758
0.133115
0.132157
0.132661
0.135088
0.139518
0.14565
0.152857
0.16028
0.166945
0.171885
0.174259
0.173449
0.169129
0.161288
0.150222
0.136475
0.120454
0.103114
0.0853165
0.0679016
0.0515763
0.0367653
0.0256784
0.0333737
0.0408547
0.0476447
0.0538062
0.0593745
0.0649166
0.0710342
0.0786348
0.088237
0.100157
0.114422
0.130724
0.148421
0.166585
0.184084
0.199701
0.212259
0.220747
0.224422
0.222886
0.216129
0.204522
0.188765
0.169804
0.148359
0.125729
0.103046
0.0812807
0.0612318
0.0433682
-0.00604844
-0.00775157
-0.0087962
-0.0087418
-0.00702729
-0.00310206
0.00370552
0.0139126
0.0277691
0.0453526
0.0664432
0.0904904
0.116618
0.143666
0.170272
0.194974
0.216341
0.233097
0.244239
0.249124
0.247531
0.239679
0.226191
0.208025
0.186374
0.162139
0.136811
0.11167
0.0877418
0.0658606
0.0465431
-0.0276129
-0.035708
-0.0426411
-0.047339
-0.048942
-0.0465761
-0.0395473
-0.0274312
-0.0104419
0.0111978
0.0369232
0.0658366
0.0967424
0.128216
0.158702
0.186624
0.210506
0.229094
0.241457
0.247061
0.245811
0.238048
0.224512
0.206253
0.184531
0.160293
0.135047
0.110077
0.0863803
0.0647638
0.0457459
-0.0369319
-0.0477548
-0.0572813
-0.06418
-0.067512
-0.0663435
-0.0600106
-0.0481965
-0.031359
-0.00986459
0.0155921
0.0440194
0.074178
0.104657
0.133969
0.160651
0.183371
0.201026
0.21283
0.218364
0.217607
0.210926
0.199029
0.182894
0.163664
0.14219
0.119818
0.0977145
0.0767276
0.057568
0.0406528
-0.0349401
-0.0451816
-0.054314
-0.0610677
-0.0646352
-0.0641402
-0.0591414
-0.0493979
-0.0353998
-0.0175191
0.00360535
0.0271051
0.0519289
0.0769106
0.100845
0.122568
0.141037
0.155405
0.165078
0.16976
0.169459
0.164485
0.155408
0.142998
0.128145
0.111506
0.0941363
0.0769015
0.0604916
0.0454601
0.0320958
-0.0255077
-0.032925
-0.0396323
-0.0446139
-0.047333
-0.0471254
-0.0437172
-0.0370161
-0.0273798
-0.0150918
-0.000616014
0.0154363
0.0323397
0.0493034
0.065521
0.0802236
0.0927284
0.102486
0.10912
0.112441
0.112465
0.109396
0.103604
0.0955896
0.0859261
0.0750407
0.0635922
0.0521201
0.0411348
0.0310316
0.0219405
0.0427382
0.0579938
0.0737301
0.0892101
0.103777
0.116647
0.127294
0.135346
0.140996
0.144213
0.145134
0.144055
0.141411
0.137732
0.133595
0.129561
0.126118
0.12362
0.122243
0.121946
0.122463
0.123325
0.123917
0.123544
0.121532
0.116762
0.108885
0.097884
0.0843413
0.0688056
0.052539
0.0601423
0.0815553
0.103607
0.125222
0.145412
0.163136
0.177522
0.187882
0.194483
0.197256
0.196401
0.19239
0.185929
0.177903
0.16929
0.161058
0.154071
0.148983
0.146161
0.14561
0.146968
0.149527
0.152318
0.154219
0.154111
0.150169
0.141867
0.129094
0.112394
0.092516
0.07111
0.0707549
0.0957329
0.121347
0.146263
0.169189
0.188889
0.204092
0.213936
0.218684
0.218244
0.21291
0.20336
0.190622
0.175986
0.160893
0.146787
0.134974
0.126472
0.121891
0.121334
0.124366
0.130056
0.137073
0.143841
0.148747
0.149367
0.144709
0.134575
0.119297
0.0996754
0.0775659
0.0713074
0.0962837
0.121671
0.145971
0.167722
0.185467
0.197797
0.203699
0.203362
0.196704
0.18413
0.166545
0.145306
0.122125
0.09892
0.0776309
0.0600314
0.047535
0.0410324
0.0407644
0.0462762
0.0564541
0.0696474
0.0838515
0.0969599
0.10611
0.109825
0.107405
0.0989811
0.0851642
0.0677927
0.062675
0.0843895
0.106036
0.126183
0.143293
0.155853
0.162368
0.161745
0.154052
0.139233
0.117802
0.0908681
0.0600898
0.0275613
-0.00436167
-0.0332781
-0.0569717
-0.0736437
-0.0821132
-0.0819698
-0.0736366
-0.0583388
-0.0379701
-0.0148869
0.00837425
0.0286865
0.0440475
0.053236
0.0559737
0.0525376
0.0444207
0.0484716
0.0650461
0.081033
0.0952046
0.106033
0.112041
0.111722
0.103945
0.0886114
0.0656776
0.0357314
3.04625e-05
-0.0395415
-0.0805933
-0.120419
-0.156238
-0.18546
-0.20595
-0.216257
-0.215791
-0.204899
-0.18485
-0.157689
-0.126025
-0.0927268
-0.0610248
-0.0334013
-0.0116133
0.00362596
0.0121894
0.0151004
0.0319104
0.0427103
0.0525316
0.0604545
0.0650379
0.0649136
0.0586169
0.0449918
0.0237376
-0.00521662
-0.0412824
-0.0831546
-0.128847
-0.175811
-0.221133
-0.261792
-0.294945
-0.31821
-0.329925
-0.329331
-0.316675
-0.293196
-0.260988
-0.222783
-0.181643
-0.140772
-0.103002
-0.0705251
-0.0444275
-0.0252065
-0.0123155
0.0164411
0.0221166
0.0266706
0.0295523
0.0294587
0.0251821
0.0153245
-0.00129403
-0.0251914
-0.0565189
-0.0947731
-0.138718
-0.186411
-0.23531
-0.282466
-0.324792
-0.359345
-0.38363
-0.395863
-0.395169
-0.381693
-0.356599
-0.321942
-0.280454
-0.235238
-0.1894
-0.145935
-0.107276
-0.0747234
-0.0490091
-0.0299162
0.00412087
0.00600878
0.00691606
0.0066681
0.00413684
-0.00169526
-0.0121387
-0.0283921
-0.0511742
-0.0807561
-0.11679
-0.158216
-0.203268
-0.249573
-0.29433
-0.334562
-0.367409
-0.390414
-0.401795
-0.400643
-0.387038
-0.362055
-0.327652
-0.286456
-0.241476
-0.195692
-0.152052
-0.112988
-0.0798003
-0.0532596
-0.0332348
-0.00388244
-0.00417899
-0.00510138
-0.00650032
-0.00931285
-0.0143578
-0.0228387
-0.0359431
-0.054532
-0.0789953
-0.109166
-0.144215
-0.182646
-0.22237
-0.260879
-0.295471
-0.323528
-0.342792
-0.351619
-0.349175
-0.335546
-0.311752
-0.279633
-0.241658
-0.20064
-0.159454
-0.120814
-0.0869086
-0.0588249
-0.0371566
-0.0215834
-0.00697677
-0.00787612
-0.00899185
-0.00996999
-0.0115689
-0.0144302
-0.0196231
-0.0282647
-0.0412457
-0.059016
-0.0815437
-0.108208
-0.137789
-0.168531
-0.198291
-0.224748
-0.245652
-0.259074
-0.263642
-0.258714
-0.244484
-0.221984
-0.192977
-0.159767
-0.124937
-0.0912993
-0.0612084
-0.0364338
-0.0176732
-0.00516888
0.00183042
-0.00460985
-0.0046004
-0.00454963
-0.00408457
-0.00383664
-0.00432658
-0.00646241
-0.0112043
-0.0193062
-0.0311549
-0.0467283
-0.0655034
-0.0864519
-0.108098
-0.128654
-0.146202
-0.158921
-0.1653
-0.164337
-0.155699
-0.139796
-0.117767
-0.0913756
-0.0628174
-0.0344661
-0.00913031
0.0112384
0.0253698
0.0330501
0.0344863
0.0310056
0.00405664
0.00655274
0.00900519
0.0115613
0.0136186
0.0146818
0.0140193
0.0109244
0.00499203
-0.00392989
-0.0156382
-0.0295182
-0.0445599
-0.0594262
-0.0725799
-0.0824531
-0.0876342
-0.0870538
-0.0801433
-0.0669572
-0.0482177
-0.0252805
-5.30991e-06
0.0254296
0.0487835
0.0672037
0.0790968
0.0836676
0.0811823
0.0723003
0.058944
0.019997
0.0267763
0.0329662
0.0382082
0.0417882
0.0431078
0.0416026
0.0369057
0.0291921
0.0187365
0.00614593
-0.00763913
-0.0213996
-0.0337323
-0.0431828
-0.048403
-0.0483108
-0.0422404
-0.0300587
-0.012247
0.0100933
0.0353088
0.0613445
0.0859402
0.106887
0.121264
0.127728
0.125844
0.116268
0.100024
0.0795252
0.0437526
0.0568307
0.0683069
0.0770399
0.0820421
0.0824655
0.0778766
0.0683017
0.0547107
0.0379768
0.0193196
0.00023325
-0.0176228
-0.0325601
-0.0430124
-0.047689
-0.0457123
-0.036734
-0.0210091
0.000566257
0.0264941
0.0547795
0.0831088
0.10906
0.130364
0.144039
0.148856
0.144584
0.132111
0.112683
0.0890013
0.0746568
0.0960097
0.114396
0.127671
0.134423
0.13342
0.124299
0.107492
0.0849161
0.0581548
0.0291856
0.000222827
-0.026456
-0.0487001
-0.0646625
-0.0729584
-0.072782
-0.063994
-0.047155
-0.0235163
0.00506249
0.0362574
0.0674856
0.0961323
0.119814
0.135533
0.142063
0.139206
0.127918
0.109501
0.0866995
0.110236
0.141304
0.167901
0.186769
0.195971
0.193808
0.179922
0.155111
0.122295
0.0837905
0.0423728
0.00103539
-0.0372527
-0.0697937
-0.0943676
-0.109397
-0.114048
-0.108288
-0.0928882
-0.0693622
-0.0398484
-0.0069293
0.0265972
0.0579564
0.0846575
0.103773
0.114009
0.115084
0.107884
0.0936156
0.074835
0.146126
0.187224
0.22247
0.247535
0.259946
0.257529
0.239881
0.208094
0.16602
0.116622
0.0633927
0.01003
-0.0398677
-0.0830963
-0.117078
-0.140033
-0.151057
-0.150165
-0.138243
-0.116966
-0.0886331
-0.0559649
-0.0218606
0.0108454
0.0396317
0.0617493
0.0758486
0.081519
0.079489
0.0707799
0.0575785
0.176658
0.226517
0.269518
0.300472
0.316471
0.314953
0.295457
0.259277
0.210989
0.154028
0.0924018
0.0303027
-0.028238
-0.079681
-0.121224
-0.150968
-0.16798
-0.1723
-0.164877
-0.147441
-0.12232
-0.0922215
-0.0599874
-0.0283583
0.000249654
0.0233907
0.0397423
0.0488036
0.0511302
0.0475294
0.0397222
0.196041
0.251677
0.300007
0.335352
0.354571
0.354899
0.335843
0.298804
0.248771
0.189404
0.124929
0.0597236
-0.00205362
-0.0568041
-0.10173
-0.134984
-0.155707
-0.164004
-0.160859
-0.147973
-0.127576
-0.102202
-0.0744558
-0.0468025
-0.0213813
-0.000211178
0.0155509
0.0254199
0.0298244
0.0293912
0.0253637
0.199788
0.256808
0.306715
0.343812
0.365004
0.367568
0.351051
0.31688
0.270078
0.214246
0.153498
0.0920307
0.0337697
-0.0179588
-0.0606431
-0.0927067
-0.113509
-0.123299
-0.123093
-0.114511
-0.0995725
-0.0804902
-0.0594628
-0.0385005
-0.0192891
-0.00331441
0.00859154
0.0161035
0.0196064
0.0196203
0.01697
0.185958
0.23928
0.286283
0.321759
0.342959
0.347472
0.334978
0.306869
0.267813
0.22109
0.170372
0.119326
0.071293
0.0290017
-0.0055998
-0.0314225
-0.0481989
-0.0564032
-0.0571106
-0.0518205
-0.0422636
-0.0302161
-0.0173344
-0.00502814
0.00561624
0.01372
0.0189189
0.0211884
0.0209615
0.0187386
0.0150251
0.155804
0.200603
0.24034
0.27075
0.289691
0.295305
0.287501
0.267587
0.239549
0.206129
0.170295
0.134903
0.102429
0.0747511
0.053036
0.0377175
0.028572
0.0248322
0.0253442
0.0287461
0.0336443
0.0387676
0.0430841
0.0458714
0.0467304
0.0454182
0.0421305
0.0372451
0.0313151
0.024894
0.0182783
0.113644
0.146295
0.175398
0.197955
0.212608
0.21821
0.214966
0.204072
0.188604
0.17063
0.152256
0.135358
0.12139
0.111239
0.105182
0.102915
0.103674
0.106373
0.109774
0.11266
0.113992
0.113019
0.109351
0.102964
0.0941588
0.0833021
0.0711687
0.0585769
0.0462319
0.0347804
0.0244058
0.0659617
0.084727
0.101495
0.114665
0.12372
0.128281
0.128863
0.126533
0.123361
0.120699
0.119751
0.121386
0.126018
0.133546
0.143372
0.154487
0.165615
0.175381
0.182485
0.18586
0.184804
0.179056
0.168812
0.154684
0.137599
0.118453
0.0985386
0.0790776
0.0609156
0.0447934
0.0308494
0.0199071
0.0251816
0.0298384
0.0336138
0.0367629
0.0396145
0.0429545
0.0477095
0.0549811
0.0654554
0.0795097
0.0971063
0.117745
0.140472
0.163952
0.1866
0.206742
0.222796
0.233444
0.237775
0.235384
0.22642
0.211554
0.1919
0.168869
0.143758
0.118241
0.0938455
0.0715067
0.0520286
0.0355358
-0.0177044
-0.0234818
-0.0288153
-0.0328943
-0.0348744
-0.0338854
-0.0289612
-0.0193278
-0.00469066
0.015093
0.0397494
0.0685512
0.100326
0.133518
0.166302
0.196734
0.222924
0.243211
0.256329
0.261524
0.25863
0.24809
0.230889
0.20845
0.182467
0.154459
0.126298
0.0996596
0.0754957
0.0546167
0.0371647
-0.0425136
-0.0555447
-0.0674861
-0.0768121
-0.0823394
-0.0828773
-0.0774089
-0.0653192
-0.0468832
-0.0223347
0.0076336
0.0418815
0.0788692
0.116749
0.153498
0.187073
0.215575
0.23741
0.251435
0.257051
0.254262
0.243665
0.226377
0.203917
0.178035
0.150281
0.122517
0.0963972
0.0728142
0.0525292
0.0356737
-0.0520991
-0.0678335
-0.0822373
-0.0935475
-0.10051
-0.10192
-0.0967995
-0.0847028
-0.0662045
-0.0417254
-0.0121178
0.0213732
0.0571737
0.0934804
0.128388
0.16003
0.186716
0.207071
0.220147
0.225501
0.223223
0.213925
0.198666
0.178839
0.156023
0.131593
0.107196
0.0843065
0.0636653
0.045927
0.0311415
-0.0477487
-0.0621164
-0.075296
-0.0856532
-0.0921326
-0.0936337
-0.0894831
-0.0793528
-0.0638564
-0.0434324
-0.0188668
0.0087538
0.0381016
0.0676961
0.0960053
0.121556
0.143036
0.159401
0.169951
0.174382
0.172807
0.165737
0.15402
0.138752
0.12116
0.102306
0.0834666
0.0657585
0.0497599
0.035968
0.0243691
-0.0345038
-0.0448067
-0.0543202
-0.0617766
-0.0664695
-0.0675636
-0.0646396
-0.0575701
-0.0468035
-0.0326808
-0.0157761
0.00314274
0.0231579
0.0432644
0.0624378
0.0797047
0.0942091
0.105277
0.112465
0.115591
0.114743
0.110263
0.102709
0.0927966
0.0813223
0.0689721
0.0565608
0.0447882
0.0340825
0.0248102
0.0168643
0.0385605
0.0531301
0.0685723
0.0843719
0.0999131
0.114429
0.127304
0.137978
0.146379
0.152253
0.155517
0.156279
0.154837
0.15165
0.147288
0.142371
0.137498
0.133172
0.129738
0.127325
0.125822
0.124887
0.123993
0.122491
0.119716
0.114533
0.106554
0.0956628
0.0823889
0.0672065
0.051303
0.0527861
0.0727784
0.094061
0.115863
0.137269
0.15725
0.174805
0.188968
0.199576
0.206211
0.208733
0.207328
0.202498
0.195026
0.185894
0.176174
0.166914
0.159012
0.153101
0.149456
0.147948
0.148055
0.148932
0.149511
0.148663
0.144529
0.136494