# vtk DataFile Version 2.0
Func
ASCII
DATASET RECTILINEAR_GRID
DIMENSIONS 31 31 31
X_COORDINATES 31 double
-9.67742
-9.03226
-8.3871
-7.74194
-7.09677
-6.45161
-5.80645
-5.16129
-4.51613
-3.87097
-3.22581
-2.58065
-1.93548
-1.29032
-0.645161
0
0.645161
1.29032
1.93548
2.58065
3.22581
3.87097
4.51613
5.16129
5.80645
6.45161
7.09677
7.74194
8.3871
9.03226
9.67742
Y_COORDINATES 31 double
-9.67742
-9.03226
-8.3871
-7.74194
-7.09677
-6.45161
-5.80645
-5.16129
-4.51613
-3.87097
-3.22581
-2.58065
-1.93548
-1.29032
-0.645161
0
0.645161
1.29032
1.93548
2.58065
3.22581
3.87097
4.51613
5.16129
5.80645
6.45161
7.09677
7.74194
8.3871
9.03226
9.67742
Z_COORDINATES 31 double
-9.67742
-9.03226
-8.3871
-7.74194
-7.09677
-6.45161
-5.80645
-5.16129
-4.51613
-3.87097
-3.22581
-2.58065
-1.93548
-1.29032
-0.645161
0
0.645161
1.29032
1.93548
2.58065
3.22581
3.87097
4.51613
5.16129
5.80645
6.45161
7.09677
7.74194
8.3871
9.03226
9.67742
POINT_DATA 29791
SCALARS data double 1
LOOKUP_TABLE default
-0.0486509
-0.0607146
-0.0696972
-0.0742226
-0.0739678
-0.0687481
-0.059542
-0.04779
-0.0358813
-0.0256857
-0.0188951
-0.0167736
-0.0199739
-0.0284112
-0.0412509
-0.0569961
-0.0736792
-0.0891152
-0.101192
-0.108168
-0.108923
-0.103129
-0.091285
-0.0746621
-0.055074
-0.034965
-0.0166041
-0.00188225
0.0085023
0.0138823
0.0156926
-0.0606304
-0.0760342
-0.0872984
-0.0932083
-0.0932008
-0.0871765
-0.0764024
-0.0626065
-0.0489473
-0.0379114
-0.0317597
-0.0321975
-0.0400993
-0.05532
-0.0766534
-0.101933
-0.128287
-0.152498
-0.171426
-0.182447
-0.183841
-0.175065
-0.156822
-0.130987
-0.100299
-0.0684656
-0.0389005
-0.0145857
0.00325785
0.0137038
0.0181263
-0.0541139
-0.0683947
-0.0789106
-0.0849306
-0.0858867
-0.0818792
-0.0739087
-0.0636778
-0.0542062
-0.0479771
-0.0472747
-0.0538444
-0.0685718
-0.0912524
-0.120504
-0.153845
-0.18795
-0.219045
-0.243392
-0.257814
-0.260173
-0.24971
-0.227175
-0.194754
-0.155734
-0.114508
-0.075393
-0.042001
-0.0161377
0.000872188
0.0101969
-0.0264002
-0.0345715
-0.0409433
-0.0456304
-0.0482582
-0.0489178
-0.0482324
-0.0471945
-0.0476463
-0.0513272
-0.0599125
-0.074743
-0.0965224
-0.12507
-0.159174
-0.196596
-0.234247
-0.268516
-0.29572
-0.312618
-0.316905
-0.307602
-0.285229
-0.251789
-0.210473
-0.165483
-0.121314
-0.0818767
-0.0493231
-0.0253728
-0.00938504
0.0151949
0.0166811
0.0168073
0.0144754
0.0098349
0.00279291
-0.00642579
-0.0176197
-0.0306895
-0.0460596
-0.0643374
-0.0861835
-0.112076
-0.142065
-0.175554
-0.211177
-0.246813
-0.279757
-0.307039
-0.325822
-0.333857
-0.329868
-0.31379
-0.286846
-0.251375
-0.210426
-0.1679
-0.127358
-0.0911363
-0.0612423
-0.0377899
0.0561421
0.0671057
0.0733444
0.0730345
0.0662027
0.0529141
0.0344482
0.0124056
-0.010994
-0.0347288
-0.058298
-0.0817551
-0.105551
-0.130295
-0.156443
-0.184014
-0.212391
-0.240281
-0.265829
-0.286855
-0.30122
-0.307189
-0.303747
-0.290795
-0.269176
-0.240025
-0.205991
-0.169793
-0.13377
-0.100128
-0.0699036
0.0820537
0.0984823
0.107722
0.107629
0.0983687
0.0803685
0.0559902
0.0281263
0.000697071
-0.0241302
-0.0450958
-0.0620183
-0.0757015
-0.0876826
-0.099815
-0.113811
-0.130819
-0.151151
-0.17418
-0.198402
-0.221691
-0.241654
-0.256018
-0.262985
-0.261471
-0.250247
-0.230285
-0.203145
-0.171042
-0.136292
-0.10107
0.0824223
0.0976444
0.104777
0.101952
0.0898044
0.0693322
0.0438065
0.0170329
-0.00625745
-0.0233788
-0.0329279
-0.0350313
-0.0312745
-0.0244106
-0.0178354
-0.0149704
-0.0186482
-0.0306368
-0.0513517
-0.0797701
-0.113595
-0.149605
-0.184132
-0.213558
-0.234778
-0.244155
-0.240899
-0.225348
-0.199532
-0.16583
-0.127537
0.0565276
0.0637396
0.0636822
0.0552545
0.0398295
0.0190998
-0.00308463
-0.0225216
-0.0346928
-0.0370995
-0.028824
-0.010782
0.0143727
0.0425976
0.0690784
0.0889645
0.0981125
0.0936986
0.0746299
0.041731
-0.00236953
-0.0535932
-0.106968
-0.157247
-0.199555
-0.228196
-0.240848
-0.23679
-0.21786
-0.186466
-0.146859
0.0135536
0.00859486
-0.00148256
-0.0167873
-0.0351395
-0.0541949
-0.069941
-0.0783172
-0.0758466
-0.0607736
-0.0330858
0.00528809
0.0506282
0.0978317
0.141084
0.174647
0.193653
0.194766
0.176643
0.140161
0.0883169
0.0258698
-0.0412686
-0.106725
-0.16442
-0.207295
-0.231991
-0.237056
-0.224149
-0.195666
-0.156479
-0.0301283
-0.0467366
-0.0657616
-0.0864398
-0.105993
-0.12167
-0.129734
-0.126703
-0.110529
-0.0804368
-0.0373832
0.0158335
0.0747784
0.133821
0.186805
0.227813
0.251922
0.255836
0.238322
0.200428
0.145378
0.0782138
0.00518573
-0.0669427
-0.131675
-0.181509
-0.212673
-0.223386
-0.215123
-0.190169
-0.153553
-0.057215
-0.0800059
-0.102825
-0.124455
-0.141984
-0.152673
-0.153439
-0.14165
-0.116556
-0.0782487
-0.0283485
0.0299594
0.0921587
0.152828
0.206241
0.247036
0.270854
0.274882
0.258211
0.222006
0.169404
0.105178
0.0351885
-0.0342469
-0.0970611
-0.146288
-0.178354
-0.19151
-0.186995
-0.166827
-0.135654
-0.056591
-0.0769903
-0.0959805
-0.112451
-0.123938
-0.128208
-0.123091
-0.106888
-0.0796363
-0.0419089
0.00454798
0.0568265
0.11107
0.162827
0.207516
0.240941
0.259769
0.261932
0.246887
0.215734
0.171117
0.116962
0.0580333
-0.000553045
-0.0538969
-0.0964245
-0.125224
-0.138835
-0.138165
-0.12476
-0.102372
-0.028194
-0.0378412
-0.0457997
-0.0515535
-0.0536062
-0.0506394
-0.0414916
-0.0253331
-0.00233936
0.0269002
0.0610781
0.0981812
0.135636
0.170538
0.199942
0.221186
0.232187
0.231692
0.219438
0.196217
0.163822
0.124865
0.0825104
0.0401475
0.00103106
-0.0312218
-0.0546101
-0.0680715
-0.0720781
-0.0675195
-0.0568579
0.0165675
0.0223521
0.0291964
0.0367763
0.0453631
0.0551694
0.0664167
0.0792378
0.0938137
0.109904
0.127017
0.144396
0.161062
0.175895
0.187737
0.195519
0.198386
0.195807
0.187643
0.174195
0.156184
0.134703
0.111106
0.0868837
0.0635053
0.0424634
0.0248237
0.0112691
0.00182961
-0.00362799
-0.00608331
0.0593026
0.0794048
0.0995732
0.118725
0.136005
0.150628
0.162086
0.170034
0.175171
0.177743
0.178145
0.176868
0.174441
0.171367
0.168063
0.164815
0.161764
0.158894
0.156048
0.152957
0.14928
0.144664
0.138798
0.13145
0.122506
0.111571
0.0989297
0.0849871
0.0702742
0.0553817
0.0407673
0.0821975
0.109921
0.136929
0.161747
0.182818
0.198745
0.208586
0.211742
0.209244
0.201719
0.190218
0.176131
0.161056
0.146624
0.134331
0.125361
0.120476
0.119927
0.123436
0.130215
0.139067
0.148524
0.157023
0.163073
0.165422
0.16234
0.153587
0.139428
0.120823
0.0989251
0.0753739
0.0753946
0.100966
0.125607
0.14796
0.166372
0.179365
0.185899
0.185318
0.17859
0.166474
0.150271
0.131732
0.112892
0.0958539
0.0825484
0.0745072
0.0726891
0.0773603
0.0880554
0.103607
0.122276
0.141942
0.160347
0.175328
0.185062
0.187171
0.181189
0.167367
0.146988
0.121541
0.0934584
0.0409468
0.0552606
0.0689945
0.0813755
0.0912195
0.0974906
0.0993514
0.0962657
0.0887688
0.0775061
0.0636335
0.0487431
0.0347045
0.0234532
0.0167491
0.0159428
0.0217922
0.0343416
0.0528883
0.0760232
0.101774
0.127813
0.151717
0.171219
0.184452
0.189046
0.184581
0.171415
0.15106
0.125132
0.0964463
-0.00835255
-0.0103422
-0.0123252
-0.014221
-0.0163935
-0.0190826
-0.0226942
-0.027486
-0.0334854
-0.0402625
-0.0470233
-0.0526584
-0.055867
-0.0553287
-0.0499055
-0.0388356
-0.0218897
0.000541904
0.0274412
0.0572225
0.08788
0.117189
0.142948
0.163197
0.176432
0.180766
0.176057
0.162888
0.142966
0.117925
0.090625
-0.0546345
-0.0722982
-0.0896068
-0.105631
-0.119865
-0.131646
-0.140804
-0.147168
-0.151124
-0.152353
-0.150388
-0.144645
-0.134518
-0.119492
-0.0992899
-0.0739928
-0.0441378
-0.0107426
0.0247356
0.0604946
0.0945434
0.124889
0.149741
0.167682
0.177811
0.178974
0.171512
0.156354
0.135438
0.110437
0.084035
-0.0824644
-0.110238
-0.137933
-0.164021
-0.187336
-0.206439
-0.220512
-0.228822
-0.231631
-0.228459
-0.218915
-0.202752
-0.179938
-0.150738
-0.115781
-0.0761092
-0.0331802
0.0111937
0.0549624
0.0959866
0.132219
0.161881
0.183636
0.196691
0.200861
0.195807
0.182525
0.162423
0.137752
0.110327
0.08256
-0.0848198
-0.114829
-0.145777
-0.175916
-0.203761
-0.227354
-0.245221
-0.255955
-0.259123
-0.253757
-0.239215
-0.215288
-0.182289
-0.14111
-0.0932297
-0.0406717
0.0141027
0.0683651
0.119335
0.164406
0.201368
0.228595
0.245177
0.250969
0.246558
0.232427
0.210374
0.182414
0.151165
0.118702
0.0871302
-0.0650117
-0.0902951
-0.118066
-0.146733
-0.174792
-0.20004
-0.220384
-0.233682
-0.238379
-0.232779
-0.215734
-0.186832
-0.146525
-0.0961809
-0.0380374
0.0249345
0.0892581
0.151246
0.207331
0.254381
0.28998
0.312635
0.321871
0.318224
0.303098
0.277834
0.245129
0.207674
0.168447
0.129803
0.0935173
-0.0340187
-0.0509164
-0.0719388
-0.0959036
-0.121446
-0.146313
-0.167872
-0.183268
-0.189706
-0.184714
-0.166576
-0.134596
-0.0892785
-0.0323825
0.0331775
0.103561
0.174349
0.240971
0.299144
0.345283
0.376846
0.392544
0.392413
0.37773
0.350774
0.31382
0.270465
0.224067
0.177837
0.134308
0.0948718
-0.00489103
-0.0136869
-0.0278555
-0.0467042
-0.0690003
-0.0925283
-0.114235
-0.130682
-0.138057
-0.133289
-0.114233
-0.0800089
-0.0312198
0.030004
0.100151
0.174646
0.248306
0.315878
0.372576
0.414572
0.439379
0.446067
0.435292
0.409134
0.370763
0.32346
0.271608
0.219107
0.169188
0.124344
0.0854842
0.013035
0.00932142
-0.00025973
-0.0154408
-0.0350269
-0.0568719
-0.077696
-0.0937328
-0.100657
-0.095149
-0.074927
-0.0391349
0.0114379
0.0743262
0.145582
0.220155
0.29243
0.356832
0.408424
0.443439
0.459678
0.456711
0.435848
0.399919
0.352847
0.298834
0.242764
0.188822
0.139999
0.0984862
0.064726
0.0172762
0.0149827
0.00714944
-0.00622743
-0.0239115
-0.0438546
-0.0628035
-0.0769956
-0.082193
-0.075225
-0.0539939
-0.0178617
0.0321529
0.0933691
0.161668
0.231908
0.298483
0.355945
0.399609
0.426082
0.433633
0.422366
0.394142
0.352305
0.301216
0.245679
0.190669
0.140317
0.0971496
0.0628709
0.0373832
0.0119179
0.00880926
0.00115762
-0.0111475
-0.0268623
-0.0441459
-0.060082
-0.0713048
-0.074208
-0.0661276
-0.0453958
-0.0116784
0.0338712
0.0886302
0.148733
0.209467
0.265793
0.312911
0.346807
0.36472
0.36546
0.349533
0.319035
0.277369
0.228786
0.17809
0.129826
0.0876226
0.0534297
0.0283765
0.011875
0.0039396
-0.000198961
-0.00752727
-0.0181842
-0.0310579
-0.0446593
-0.056685
-0.0644984
-0.0654479
-0.057584
-0.0397644
-0.0119104
0.0248879
0.0684037
0.115469
0.1623
0.204918
0.239597
0.263297
0.274026
0.271076
0.25511
0.22805
0.192836
0.153029
0.112726
0.0755018
0.0443101
0.0203989
0.00442002
-0.00448595
-0.00157236
-0.00564682
-0.011546
-0.0193935
-0.0283722
-0.0374707
-0.045151
-0.049685
-0.0494476
-0.0432435
-0.0304222
-0.0110414
0.0140731
0.0433575
0.0746482
0.105405
0.132989
0.154965
0.169382
0.175013
0.171501
0.159413
0.140149
0.115779
0.088758
0.0619151
0.0376905
0.0179976
0.00355239
-0.00520412
-0.00929544
-0.0708413
-0.0877117
-0.0996908
-0.104637
-0.102029
-0.0917561
-0.0752602
-0.0547146
-0.0338945
-0.0157778
-0.00309132
0.00209162
-0.00134234
-0.0133366
-0.0326249
-0.0568567
-0.0828958
-0.107225
-0.126421
-0.137644
-0.139063
-0.130139
-0.111694
-0.0858232
-0.0555292
-0.0250204
0.0020521
0.0226958
0.035787
0.0404092
0.0387803
-0.0876281
-0.109085
-0.12415
-0.130729
-0.128012
-0.116099
-0.0967826
-0.0725557
-0.0483635
-0.0281103
-0.0153992
-0.0130017
-0.0224109
-0.0435299
-0.0745797
-0.112234
-0.152013
-0.188846
-0.217747
-0.234541
-0.236485
-0.222721
-0.194404
-0.154584
-0.107716
-0.0601046
-0.0171008
0.0167193
0.0393866
0.0495955
0.0497345
-0.0777748
-0.0975982
-0.111752
-0.118756
-0.117776
-0.109148
-0.0941869
-0.075324
-0.0572217
-0.0437482
-0.038536
-0.0444347
-0.0629908
-0.0940683
-0.135678
-0.18407
-0.234125
-0.279968
-0.315738
-0.336446
-0.338744
-0.321486
-0.28594
-0.235682
-0.176052
-0.114535
-0.0579052
-0.0116114
0.0215217
0.0396504
0.0451141
-0.0371429
-0.0483313
-0.0570257
-0.0629835
-0.0655894
-0.0649517
-0.0618195
-0.0575555
-0.054922
-0.0566091
-0.065297
-0.0832168
-0.111655
-0.150539
-0.198179
-0.25124
-0.305003
-0.353885
-0.392153
-0.414768
-0.418189
-0.400998
-0.364195
-0.311162
-0.247178
-0.179563
-0.115452
-0.0607899
-0.018776
0.00821073
0.0220161
0.0247523
0.0273835
0.0275433
0.0238954
0.0167687
0.00629616
-0.00701005
-0.0227378
-0.0405402
-0.0610329
-0.0852071
-0.11421
-0.148953
-0.189698
-0.235684
-0.284913
-0.334164
-0.379269
-0.415627
-0.438882
-0.445661
-0.434201
-0.404727
-0.359558
-0.302795
-0.240128
-0.177941
-0.121696
-0.0747203
-0.0397853
-0.015977
0.0870445
0.103551
0.112292
0.110631
0.0987337
0.0771812
0.0480337
0.0137828
-0.0218152
-0.0570771
-0.0912011
-0.124308
-0.157174
-0.190824
-0.226029
-0.262852
-0.30034
-0.336479
-0.368401
-0.392824
-0.406642
-0.407533
-0.394428
-0.367809
-0.329656
-0.282882
-0.232175
-0.181811
-0.13497
-0.0947078
-0.0613228
0.128808
0.153883
0.16716
0.165313
0.148675
0.118466
0.0783396
0.0327371
-0.0118053
-0.0517306
-0.0849292
-0.111
-0.131095
-0.147495
-0.162966
-0.180049
-0.200413
-0.224468
-0.251247
-0.278566
-0.303464
-0.322768
-0.333682
-0.334288
-0.323822
-0.301723
-0.270361
-0.232367
-0.1906
-0.148297
-0.107288
0.133803
0.15809
0.168875
0.163073
0.141624
0.106537
0.0628192
0.0163385
-0.0249754
-0.0566348
-0.0761352
-0.0833461
-0.0803995
-0.0712295
-0.0607697
-0.0540199
-0.0551167
-0.0666423
-0.0892314
-0.121498
-0.160337
-0.201476
-0.240177
-0.271948
-0.293137
-0.299635
-0.291356
-0.269199
-0.235647
-0.194061
-0.147819
0.0995575
0.113137
0.114134
0.100537
0.0742551
0.0381325
-0.00193409
-0.0393908
-0.0665393
-0.0790514
-0.0749977
-0.0552541
-0.0233683
0.014969
0.0528516
0.0832582
0.100165
0.09944
0.079417
0.0411288
-0.0119136
-0.0742705
-0.139375
-0.200424
-0.251222
-0.284613
-0.298369
-0.291891
-0.26731
-0.228064
-0.178899
0.0381336
0.0345135
0.0213406
-0.00187363
-0.0321406
-0.0659222
-0.0970302
-0.11902
-0.125776
-0.114022
-0.0830932
-0.0352625
0.0244632
0.0889419
0.149894
0.199077
0.229454
0.236164
0.21717
0.173552
0.109322
0.0308684
-0.0539108
-0.136594
-0.209248
-0.262662
-0.29314
-0.299057
-0.282247
-0.246151
-0.196469
-0.0273231
-0.04812
-0.0744411
-0.105342
-0.137015
-0.16557
-0.185179
-0.190191
-0.176754
-0.143076
-0.0899306
-0.0208589
0.0581186
0.139136
0.213468
0.272667
0.309663
0.319687
0.300882
0.254584
0.185138
0.0993497
0.00562221
-0.0870328
-0.170044
-0.233465
-0.272974
-0.28648
-0.275555
-0.243493
-0.196345
-0.0713891
-0.102193
-0.134767
-0.167325
-0.195856
-0.216625
-0.224758
-0.215865
-0.188234
-0.141454
-0.0773704
-0.000157367
0.0840065
0.167548
0.242381
0.300892
0.33687
0.34628
0.327772
0.282891
0.215893
0.133244
0.0428444
-0.0468666
-0.127861
-0.190856
-0.231708
-0.248352
-0.242083
-0.215813
-0.175228
-0.0768271
-0.105732
-0.133913
-0.159596
-0.179364
-0.190205
-0.188629
-0.171721
-0.139161
-0.0914017
-0.0306163
0.0393028
0.113049
0.184402
0.246917
0.294675
0.322971
0.328882
0.311627
0.272707
0.215736
0.146034
0.0700236
-0.00548111
-0.0740184
-0.128184
-0.164609
-0.181581
-0.180052
-0.162266
-0.132844
-0.0420801
-0.0571073
-0.0705468
-0.0814399
-0.0876733
-0.0874243
-0.0787798
-0.0602754
-0.0319954
0.00541916
0.0502746
0.0998431
0.150572
0.198412
0.239248
0.269367
0.285877
0.287057
0.272564
0.243514
0.202366
0.152658
0.0986207
0.0447275
-0.00478553
-0.04519
-0.0741885
-0.0905457
-0.0947901
-0.0882431
-0.0739259
0.0175929
0.023479
0.0304655
0.0382611
0.0472999
0.0580113
0.0708011
0.0859033
0.103617
0.123663
0.145395
0.167787
0.189499
0.208994
0.224701
0.235187
0.23933
0.236458
0.226446
0.209745
0.187356
0.160734
0.131641
0.101973
0.0735543
0.0482121
0.0271637
0.0112076
0.000299437
-0.00583381
-0.008358
0.0762433
0.101949
0.12765
0.151884
0.173522
0.191736
0.205738
0.214873
0.220116
0.221783
0.220414
0.216703
0.211417
0.205317
0.199074
0.193192
0.187973
0.183502
0.179644
0.176077
0.172343
0.167924
0.162316
0.155091
0.145951
0.134168
0.120089
0.104212
0.0869803
0.0691159
0.0512293
0.108101
0.14453
0.180047
0.212565
0.239963
0.260609
0.273
0.275988
0.270974
0.258756
0.24076
0.218928
0.195527
0.172925
0.153327
0.138521
0.129701
0.127343
0.131153
0.140102
0.152559
0.166495
0.179721
0.19013
0.195927
0.194616
0.185995
0.170421
0.148779
0.12256
0.0937802
0.0984551
0.131983
0.164415
0.193832
0.21795
0.234969
0.243213
0.241421
0.230839
0.212412
0.18789
0.159707
0.130749
0.10405
0.0824416
0.0682093
0.0628387
0.0668326
0.0796505
0.0997475
0.124764
0.151804
0.177767
0.199683
0.215036
0.220542
0.215791
0.201144
0.177856
0.14788
0.114101
0.0497041
0.0675205
0.0848107
0.100564
0.11312
0.121146
0.12328
0.11848
0.107278
0.0904227
0.0694295
0.0464883
0.0242429
0.005488
-0.00718456
-0.0117355
-0.00695264
0.0073675
0.0303673
0.0601853
0.0941676
0.12917
0.161913
0.189337
0.208931
0.21752
0.214803
0.201274
0.178506
0.148643
0.114896
-0.0200673
-0.0250595
-0.0296826
-0.0336304
-0.0374384
-0.0415226
-0.0465764
-0.0531581
-0.0616542
-0.0716592
-0.0822053
-0.0918101
-0.0986488
-0.100803
-0.0965597
-0.0846998
-0.0647403
-0.0370689
-0.00296215
0.0354997
0.0756486
0.114518
0.149175
0.177029
0.196113
0.203991
0.200746
0.187146
0.165083
0.136751
0.105282
-0.0851937
-0.111997
-0.13787
-0.161224
-0.181391
-0.197695
-0.209969
-0.218089
-0.223056
-0.224661
-0.222434
-0.215665
-0.203524
-0.18524
-0.160308
-0.128684
-0.0909377
-0.0483103
-0.00266121
0.0436599
0.0880374
0.127855
0.160778
0.184988
0.199369
0.202533
0.195201
0.178579
0.15494
0.126549
0.0962475
-0.123383
-0.163941
-0.203891
-0.240796
-0.27307
-0.299043
-0.317634
-0.327894
-0.330709
-0.325672
-0.312454
-0.290836
-0.260816
-0.222717
-0.177302
-0.125854
-0.0702076
-0.0126783
0.0440821
0.0972899
0.144282
0.182764
0.211041
0.22817
0.23402
0.228323
0.21267
0.188904
0.159757
0.127694
0.0952177
-0.124538
-0.167515
-0.211276
-0.253166
-0.29115
-0.322832
-0.346256
-0.359554
-0.36262
-0.354376
-0.334149
-0.301783
-0.257759
-0.203274
-0.140268
-0.0713713
0.000209783
0.0709164
0.137118
0.195416
0.242953
0.277665
0.298464
0.305298
0.299094
0.280695
0.252772
0.217988
0.179574
0.140317
0.102396
-0.0936538
-0.129108
-0.167531
-0.20664
-0.24438
-0.277934
-0.304554
-0.321415
-0.326752
-0.318456
-0.295135
-0.256339
-0.202731
-0.136162
-0.059611
0.0229883
0.107042
0.187688
0.260235
0.32059
0.365645
0.393543
0.403816
0.397358
0.376223
0.342424
0.29985
0.252089
0.202817
0.155148
0.110909
-0.0469519
-0.0697973
-0.0979743
-0.129935
-0.16383
-0.196662
-0.225003
-0.245108
-0.253349
-0.246509
-0.222369
-0.180059
-0.120304
-0.0454852
0.0404865
0.132476
0.224594
0.310769
0.385343
0.443628
0.482374
0.500047
0.496913
0.474916
0.437331
0.387488
0.330494
0.270836
0.212466
0.158658
0.11076
-0.00365647
-0.0145706
-0.0326806
-0.0572267
-0.0865624
-0.117647
-0.146505
-0.168625
-0.178835
-0.173044
-0.148399
-0.103755
-0.039959
0.0400906
0.131648
0.22855
0.323841
0.410507
0.48221
0.53395
0.562592
0.567147
0.548783
0.510598
0.457128
0.393175
0.324895
0.25748
0.194897
0.140272
0.0942749
0.0225754
0.0189506
0.00730077
-0.0122251
-0.0380526
-0.0671855
-0.0953202
-0.117487
-0.127714
-0.12152
-0.095836
-0.0495335
0.0162791
0.0982254
0.19093
0.287545
0.380494
0.462299
0.526412
0.567937
0.584169
0.57485
0.542105
0.490116
0.424508
0.351464
0.27778
0.208989
0.148764
0.0997506
0.0618707
0.0282316
0.026364
0.0167849
-0.000668517
-0.0243726
-0.0514561
-0.0775887
-0.0977504
-0.106043
-0.0981522
-0.0712434
-0.0244865
0.0406759
0.120535
0.209431
0.300334
0.38563
0.457979
0.511154
0.540767
0.544775
0.523689
0.480439
0.419973
0.348573
0.273381
0.201269
0.137663
0.0856766
0.0472547
0.0214777
0.0196124
0.016171
0.00629146
-0.0102329
-0.0317625
-0.0557325
-0.0781928
-0.0945936
-0.0998996
-0.0904669
-0.0640391
-0.0202074
0.0393809
0.111061
0.189473
0.268126
0.340129
0.398981
0.439335
0.457648
0.452604
0.425266
0.378902
0.318565
0.25042
0.181679
0.1186
0.0658699
0.0259511
1.27565e-05
-0.0134791
0.00714179
0.00179515
-0.00818586
-0.0229489
-0.0410177
-0.0603248
-0.0776899
-0.0894842
-0.0919898
-0.082519
-0.0595234
-0.0229452
0.0256413
0.0830847
0.14494
0.205937
0.260577
0.303771
0.331445
0.341049
0.331878
0.305169
0.263925
0.212548
0.156259
0.10129
0.052546
0.0139101
-0.0130672
-0.0278013
-0.0320753
-0.00152733
-0.00711601
-0.0154789
-0.0266812
-0.0396297
-0.0529162
-0.0643584
-0.0715245
-0.0721085
-0.0644356
-0.0476152
-0.0217666
0.0118995
0.0511299
0.0928346
0.133412
0.169155
0.196682
0.213344
0.217561
0.20903
0.188776
0.159019
0.12291
0.0841166
0.0470019
0.0150023
-0.009317
-0.0251207
-0.0320494
-0.0318879
-0.0885334
-0.108401
-0.12152
-0.124928
-0.117921
-0.100483
-0.0743754
-0.0426659
-0.0104408
0.0181832
0.0393888
0.0502171
0.0490037
0.0356801
0.011853
-0.0193524
-0.0536893
-0.0863424
-0.112584
-0.12847
-0.131429
-0.12068
-0.0973358
-0.0642783
-0.0256722
0.012444
0.0450779
0.0682153
0.0804307
0.0807146
0.0720749
-0.110279
-0.13585
-0.15269
-0.157748
-0.149907
-0.129399
-0.0983437
-0.0602695
-0.0217999
0.0116905
0.0351601
0.0446405
0.0378673
0.0147263
-0.0225837
-0.0697115
-0.120673
-0.168609
-0.206721
-0.229278
-0.232498
-0.215172
-0.178874
-0.127792
-0.068064
-0.00872592
0.0430291
0.0811618
0.103125
0.107487
0.0977261
-0.0992738
-0.123307
-0.139585
-0.14578
-0.140632
-0.124545
-0.0989951
-0.067358
-0.0358744
-0.00987428
0.0055246
0.00618618
-0.0103088
-0.0441146
-0.0928449
-0.151667
-0.213816
-0.271414
-0.316539
-0.342418
-0.344501
-0.321252
-0.274455
-0.209068
-0.132483
-0.0555269
0.012727
0.0651364
0.0981012
0.109649
0.103439
-0.0489323
-0.0629474
-0.0735148
-0.0798249
-0.0808525
-0.0765404
-0.0676212
-0.0559159
-0.0451118
-0.0389359
-0.0412278
-0.0553118
-0.0832931
-0.125455
-0.179863
-0.242295
-0.306575
-0.36528
-0.410726
-0.436151
-0.436844
-0.411025
-0.360248
-0.289354
-0.205782
-0.120396
-0.0427383
0.0192914
0.0617835
0.0822033
0.0838855
0.0301328
0.0328731
0.0323367
0.027212
0.0181701
0.00576283
-0.00915256
-0.0258712
-0.0438764
-0.0640528
-0.0879134
-0.117269
-0.153667
-0.197786
-0.248894
-0.304538
-0.360541
-0.411402
-0.451008
-0.473617
-0.474887
-0.452761
-0.407973
-0.344168
-0.26743
-0.186763
-0.110755
-0.0468168
0.00113749
0.0301817
0.0426723
0.112784
0.133178
0.14303
0.139138
0.121904
0.0925766
0.0539451
0.00962421
-0.0352022
-0.0782254
-0.118413
-0.156035
-0.192281
-0.228673
-0.266366
-0.305528
-0.344928
-0.381907
-0.412707
-0.433128
-0.439369
-0.428869
-0.400933
-0.357068
-0.300838
-0.23792
-0.174765
-0.117449
-0.0695403
-0.0342463
-0.0105964
0.172556
0.205005
0.221143
0.216602
0.191866
0.149015
0.0928264
0.0296019
-0.0315748
-0.0857134
-0.129799
-0.16313
-0.187097
-0.2046
-0.219178
-0.23407
-0.25138
-0.271598
-0.293512
-0.314499
-0.331154
-0.340073
-0.338598
-0.325416
-0.3008
-0.266195
-0.22515
-0.181848
-0.139327
-0.100975
-0.0676273
0.187201
0.220651
0.235015
0.225947
0.194528
0.143734
0.0800579
0.0117042
-0.0501527
-0.0990758
-0.131243
-0.145974
-0.145597
-0.134832
-0.119753
-0.106573
-0.100454
-0.104651
-0.120063
-0.145223
-0.176733
-0.210017
-0.240182
-0.262877
-0.274909
-0.273385
-0.258812
-0.233384
-0.199574
-0.160922
-0.120143
0.150946
0.172905
0.176493
0.158513
0.12112
0.0681486
0.00724881
-0.0525279
-0.100106
-0.129074
-0.136112
-0.12155
-0.0892299
-0.0458315
0.000310513
0.0406077
0.0676304
0.0762086
0.0641169
0.0322907
-0.0154941
-0.0733549
-0.134274
-0.191159
-0.237772
-0.267473
-0.278135
-0.270243
-0.245788
-0.208436
-0.162604
0.076474
0.077951
0.0647043
0.0353901
-0.00656378
-0.056679
-0.106878
-0.148367
-0.172057
-0.17282
-0.148833
-0.102044
-0.0379549
0.0351205
0.107311
0.168659
0.210592
0.227105
0.215534
0.176854
0.115411
0.0381913
-0.0462128
-0.128777
-0.201168
-0.254183
-0.28391
-0.289648
-0.273035
-0.237793
-0.189588
-0.00839669
-0.0287526
-0.058613
-0.09744
-0.140781
-0.183901
-0.219128
-0.238838
-0.236973
-0.210364
-0.159046
-0.0865618
0.000363761
0.0925959
0.179817
0.251937
0.300453
0.31957
0.306914
0.263821
0.195073
0.108183
0.0123751
-0.0825864
-0.167564
-0.232347
-0.272264
-0.286047
-0.27507
-0.242946
-0.195899
-0.0712658
-0.105883
-0.144857
-0.186402
-0.225739
-0.258421
-0.277971
-0.278525
-0.257042
-0.21228
-0.145792
-0.0620414
0.0319737
0.127462
0.214925
0.28537
0.331439
0.348335
0.334393
0.291295
0.223796
0.139079
0.0458407
-0.0467565
-0.130143
-0.194726
-0.23604
-0.252757
-0.246018
-0.21905
-0.177813
-0.0885301
-0.123461
-0.159005
-0.193164
-0.221786
-0.24131
-0.247064
-0.235178
-0.204744
-0.155854
-0.0907136
-0.0136415
0.0692914
0.150873
0.223594
0.280558
0.316302
0.327462
0.313159
0.275118
0.217428
0.146012
0.067918
-0.00950439
-0.0794223
-0.134252
-0.170434
-0.186879
-0.184466
-0.165697
-0.135471
-0.0556075
-0.0760882
-0.0954481
-0.112491
-0.12459
-0.129551
-0.124826
-0.10845
-0.080389
-0.0412233
0.00719302
0.0617622
0.118403
0.172453
0.219192
0.2544
0.274844
0.27866
0.265572
0.236934
0.195552
0.14535
0.0909083
0.036957
-0.0121456
-0.0517061
-0.0794123
-0.0944874
-0.0974893
-0.0899017
-0.0749601
0.0106536
0.0139033
0.0182372
0.023441
0.0301229
0.0388921
0.0502268
0.0645012
0.0819468
0.102226
0.124579
0.147822
0.170443
0.190747
0.207046
0.217859
0.22209
0.219166
0.209111
0.192552
0.170651
0.144981
0.117352
0.08962
0.0634901
0.0405508
0.021876
0.00801521
-0.00122436
-0.00617215
-0.00813062
0.0789671
0.105516
0.132187
0.157385
0.179803
0.198618
0.21264
0.221102
0.224898
0.224283
0.219822
0.212319
0.202732
0.192091
0.181375
0.17141
0.162802
0.155885
0.150699
0.146994
0.144283
0.141925
0.139208
0.13544
0.13003
0.121906
0.111164
0.0982767
0.0834187
0.0673318
0.0505303
0.117093
0.156626
0.195403
0.231078
0.261111
0.28374
0.296771
0.298776
0.29108
0.274446
0.250439
0.221314
0.189797
0.158814
0.131163
0.10919
0.0945543
0.0880538
0.0895534
0.0980083
0.11162
0.128081
0.144852
0.159453
0.169733
0.172883
0.168411
0.156837
0.138675
0.115457
0.0890764
0.105839
0.142235
0.177775
0.210336
0.237156
0.256232
0.265125
0.262193
0.248509
0.224953
0.193426
0.156736
0.118313
0.0818575
0.0508974
0.0283615
0.0162501
0.0154023
0.0254119
0.0446749
0.0706121
0.10001
0.129402
0.155462
0.175368
0.185672
0.185695
0.176091
0.157673
0.132397
0.102933
0.0472245
0.0651096
0.0829313
0.0996931
0.113398
0.122496
0.124986
0.119382
0.105815
0.0848601
0.0580732
0.0279122
-0.00252101
-0.0298401
-0.0508159
-0.0628133
-0.0641422
-0.0542894
-0.0339915
-0.00516202
0.0293572
0.0661639
0.101701
0.132662
0.156352
0.169653
0.172048
0.164387
0.147775
0.124286
0.0968001
-0.036833
-0.0459466
-0.0539202
-0.0601162
-0.0651563
-0.0696286
-0.0746337
-0.0812053
-0.0904262
-0.10222
-0.115766
-0.129521
-0.141407
-0.149107
-0.150436
-0.143711
-0.128062
-0.103618
-0.0715373
-0.0339148
0.00647343
0.0465149
0.0831339
0.113643
0.136033
0.148135
0.149888
0.142425
0.127194
0.106252
0.0823045
-0.11454
-0.149214
-0.181922
-0.210458
-0.233987
-0.251936
-0.264297
-0.271422
-0.275243
-0.276012
-0.273588
-0.267413
-0.256629
-0.24029
-0.21762
-0.18827
-0.152542
-0.111482
-0.0668427
-0.0209498
0.0235539
0.0640159
0.0980866
0.123983
0.140672
0.147171
0.144123
0.133102
0.115995
0.0948982
0.0721979
-0.158127
-0.208243
-0.256636
-0.300108
-0.336756
-0.364936
-0.383549
-0.392081
-0.3924
-0.384605
-0.368785
-0.345005
-0.313395
-0.274279
-0.228325
-0.176667
-0.12099
-0.0634961
-0.006765
0.0464549
0.0935201
0.132174
0.160797
0.178571
0.185536
0.181885
0.169199
0.1497
0.125811
0.0998473
0.0738944
-0.155196
-0.206693
-0.258038
-0.305873
-0.347838
-0.3815
-0.40481
-0.416235
-0.416478
-0.404881
-0.381147
-0.345412
-0.298349
-0.241253
-0.176092
-0.105481
-0.0326033
0.0390002
0.105704
0.16412
0.211419
0.245613
0.265743
0.271953
0.265403
0.247419
0.220726
0.188413
0.153464
0.118567
0.0855486
-0.112523
-0.15327
-0.196467
-0.239354
-0.279657
-0.31448
-0.340986
-0.356531
-0.359791
-0.348885
-0.322643
-0.280808
-0.224208
-0.154828
-0.0757641
0.00894236
0.0945896
0.176213
0.24904
0.308937
0.352818
0.378937
0.387019
0.37823
0.354949
0.319725
0.276586
0.229594
0.182228
0.137531
0.0970054
-0.0511262
-0.0752642
-0.104755
-0.137871
-0.1727
-0.206129
-0.234666
-0.254563
-0.262179
-0.254284
-0.228676
-0.184545
-0.122721
-0.0457405
0.0422787
0.135961
0.229164
0.315581
0.389377
0.445782
0.481583
0.495428
0.487888
0.461319
0.419466
0.366355
0.30734
0.247419
0.190356
0.139322
0.0952804
0.00431422
-0.00469817
-0.0214338
-0.045221
-0.0744639
-0.105967
-0.135695
-0.158927
-0.170084
-0.164843
-0.140197
-0.0949528
-0.030044
0.0514213
0.144375
0.242255
0.3377
0.423328
0.492544
0.540258
0.563438
0.561409
0.53583
0.490425
0.430415
0.361589
0.290472
0.222762
0.162221
0.111761
0.0714765
0.0365757
0.0362605
0.0270605
0.00887106
-0.0168075
-0.0467846
-0.0766539
-0.101059
-0.113384
-0.108783
-0.0839436
-0.0376644
0.0288232
0.111835
0.205534
0.302522
0.394672
0.47404
0.53378
0.568939
0.577024
0.558269
0.515513
0.45381
0.379705
0.300723
0.224143
0.155937
0.0995446
0.0572295
0.0280675
0.0416732
0.0426737
0.0349775
0.0181403
-0.00622638
-0.0350176
-0.063717
-0.0867984
-0.097666
-0.0916054
-0.0655427
-0.0186237
0.0474963
0.128679
0.218668
0.309755
0.393668
0.462542
0.509848
0.5312
0.524894
0.492102
0.436679
0.364662
0.283459
0.201864
0.127324
0.0656063
0.0195617
-0.0094173
-0.0233573
0.0283762
0.0263498
0.0169679
-0.000185859
-0.0233877
-0.0498282
-0.0752915
-0.0946933
-0.102398
-0.0944082
-0.0682967
-0.0237087
0.037414
0.110898
0.19072
0.269664
0.34016
0.395189
0.429134
0.438512
0.422423
0.382681
0.323569
0.251315
0.173279
0.0984503
0.0336897
-0.0161573
-0.0488257
-0.0638071
-0.0637791
0.0106766
0.00532541
-0.00538814
-0.0217165
-0.0420352
-0.0640466
-0.0842916
-0.0986639
-0.103013
-0.0943907
-0.0711544
-0.0333556
0.017114
0.0766049
0.14005
0.201519
0.25491
0.294687
0.316561
0.318072
0.298926
0.261066
0.208436
0.146513
0.0816078
0.021562
-0.0282267
-0.0636674
-0.0834678
-0.0876478
-0.0790486
-0.0014359
-0.0077724
-0.0173879
-0.0303525
-0.045428
-0.0610266
-0.0747209
-0.0837322
-0.085487
-0.0781437
-0.0607745
-0.033613
0.00186235
0.0430002
0.0862263
0.127433
0.162459
0.18759
0.200021
0.198251
0.182296
0.153727
0.115482
0.0715303
0.0263634
-0.0144809
-0.0471078
-0.0687799
-0.0789513
-0.0777215
-0.0676823
-0.0996051
-0.120514
-0.132905
-0.133009
-0.119987
-0.0937017
-0.0564134
-0.0119527
0.0334879
0.0747291
0.106895
0.126119
0.130098
0.118489
0.0930443
0.0574323
0.0167762
-0.0230215
-0.0560928
-0.0774774
-0.083875
-0.0741759
-0.0496185
-0.0136441
0.0286879
0.069785
0.10362
0.125294
0.13326
0.126509
0.108742
-0.126915
-0.154741
-0.171542
-0.173255
-0.158439
-0.127085
-0.0818773
-0.0272339
0.0287717
0.079359
0.118044
0.139576
0.140745
0.120973
0.082565
0.0305446
-0.0279489
-0.0845816
-0.130976
-0.159983
-0.166789
-0.149724
-0.110545
-0.0542561
0.0116987
0.0759238
0.129821
0.166132
0.181993
0.176008
0.152679