# vtk DataFile Version 2.0
Func
ASCII
DATASET RECTILINEAR_GRID
DIMENSIONS 31 31 31
X_COORDINATES 31 double
-9.67742
-9.03226
-8.3871
-7.74194
-7.09677
-6.45161
-5.80645
-5.16129
-4.51613
-3.87097
-3.22581
-2.58065
-1.93548
-1.29032
-0.645161
0
0.645161
1.29032
1.93548
2.58065
3.22581
3.87097
4.51613
5.16129
5.80645
6.45161
7.09677
7.74194
8.3871
9.03226
9.67742
Y_COORDINATES 31 double
-9.67742
-9.03226
-8.3871
-7.74194
-7.09677
-6.45161
-5.80645
-5.16129
-4.51613
-3.87097
-3.22581
-2.58065
-1.93548
-1.29032
-0.645161
0
0.645161
1.29032
1.93548
2.58065
3.22581
3.87097
4.51613
5.16129
5.80645
6.45161
7.09677
7.74194
8.3871
9.03226
9.67742
Z_COORDINATES 31 double
-9.67742
-9.03226
-8.3871
-7.74194
-7.09677
-6.45161
-5.80645
-5.16129
-4.51613
-3.87097
-3.22581
-2.58065
-1.93548
-1.29032
-0.645161
0
0.645161
1.29032
1.93548
2.58065
3.22581
3.87097
4.51613
5.16129
5.80645
6.45161
7.09677
7.74194
8.3871
9.03226
9.67742
POINT_DATA 29791
SCALARS data double 1
LOOKUP_TABLE default
0.0466235
0.0604476
0.0732515
0.0834185
0.0901926
0.0926649
0.0905971
0.0840348
0.0738922
0.0608872
0.0460238
0.0305242
0.0157649
0.00317916
-0.00585109
-0.0101175
-0.00870628
-0.0011205
0.0126216
0.0319075
0.0555187
0.0816818
0.10822
0.132733
0.152874
0.16547
0.169043
0.162805
0.148007
0.125679
0.0991623
0.056102
0.0726219
0.0876469
0.0994022
0.10684
0.108897
0.105235
0.0957564
0.0815738
0.0635346
0.0428674
0.0211195
8.76982e-05
-0.0182943
-0.0320919
-0.039539
-0.0392139
-0.0302268
-0.0123828
0.0136745
0.0464212
0.0834985
0.121903
0.158238
0.189099
0.209789
0.218222
0.213128
0.195824
0.167797
0.133136
0.0478767
0.0617816
0.0743619
0.0840147
0.0897535
0.0906559
0.0861326
0.0760292
0.0611614
0.0421661
0.0200872
-0.00364492
-0.0272509
-0.0486875
-0.0657816
-0.076413
-0.0787289
-0.0713863
-0.0537804
-0.0262593
0.0097728
0.0518702
0.096725
0.140447
0.179009
0.206873
0.221146
0.220438
0.20569
0.178339
0.14285
0.0206747
0.0266846
0.0323377
0.0366511
0.0390791
0.038913
0.0356361
0.0288674
0.0185971
0.00484362
-0.0120327
-0.0312722
-0.0516763
-0.0716223
-0.0891461
-0.102099
-0.108374
-0.106176
-0.0943135
-0.0724767
-0.0414269
-0.00305609
0.0397341
0.0832707
0.123553
0.155104
0.174656
0.180238
0.172448
0.152176
0.123587
-0.0178178
-0.0227099
-0.0262586
-0.02843
-0.0291109
-0.028525
-0.0271679
-0.0257289
-0.0254139
-0.0271673
-0.0317437
-0.0395428
-0.0504594
-0.0637903
-0.0782267
-0.091946
-0.102814
-0.108661
-0.107611
-0.0984207
-0.0807622
-0.0553868
-0.0241086
0.0103359
0.0446534
0.0742549
0.0958709
0.107281
0.108367
0.0992268
0.0829676
-0.0553268
-0.0702857
-0.0816849
-0.0884188
-0.0896467
-0.085066
-0.0751565
-0.0609911
-0.0450905
-0.0295364
-0.0164249
-0.00758397
-0.00430307
-0.00711164
-0.0156577
-0.0287095
-0.0443067
-0.060017
-0.0732792
-0.0817947
-0.0838968
-0.0788297
-0.0668705
-0.049315
-0.0282463
-0.00679497
0.0121578
0.026327
0.0348372
0.0369058
0.0342077
-0.0818101
-0.102941
-0.118225
-0.125585
-0.123562
-0.111406
-0.0896338
-0.0597382
-0.0254226
0.0101053
0.0434048
0.0711898
0.0907148
0.100123
0.0986851
0.0869007
0.0664147
0.0398035
0.0102341
-0.0189561
-0.0447034
-0.0646086
-0.0772017
-0.0820731
-0.0798038
-0.0717629
-0.0601404
-0.0470889
-0.0341854
-0.0230288
-0.0136745
-0.0912048
-0.113102
-0.127145
-0.13063
-0.121712
-0.099379
-0.0642583
-0.0182416
0.0341167
0.0886727
0.140857
0.186139
0.220509
0.240926
0.245664
0.234505
0.208737
0.170987
0.1249
0.0747133
0.0247527
-0.0210452
-0.0595306
-0.0886069
-0.107326
-0.115289
-0.113864
-0.10494
-0.0906628
-0.0733117
-0.0546106
-0.0845206
-0.102516
-0.111265
-0.107841
-0.0902842
-0.0575243
-0.0103364
0.0490745
0.115733
0.184879
0.251186
0.309273
0.354232
0.382156
0.390559
0.378645
0.347372
0.299348
0.238532
0.169824
0.0985293
0.0298201
-0.0317641
-0.0826939
-0.120687
-0.143787
-0.152582
-0.148658
-0.134573
-0.113133
-0.0874573
-0.0680506
-0.0798932
-0.0819487
-0.0714268
-0.0464585
-0.00607117
0.0488446
0.115949
0.190286
0.266884
0.34013
0.404282
0.454011
0.48496
0.494203
0.480564
0.444738
0.389232
0.318109
0.236602
0.15058
0.065979
-0.0117516
-0.0781032
-0.129843
-0.163852
-0.180133
-0.179994
-0.166221
-0.141979
-0.111316
-0.0508345
-0.0574526
-0.0547034
-0.0401449
-0.0120975
0.0302685
0.0860834
0.153134
0.226874
0.302563
0.374801
0.437995
0.48689
0.517103
0.525587
0.510977
0.473739
0.416153
0.342109
0.256753
0.16599
0.0759258
-0.00769752
-0.0799795
-0.137244
-0.175744
-0.195151
-0.196553
-0.182737
-0.156989
-0.123701
-0.0410579
-0.046102
-0.043123
-0.0300722
-0.00542863
0.0315708
0.0803002
0.138991
0.203819
0.270703
0.334918
0.391491
0.435664
0.463385
0.471742
0.459293
0.42624
0.374449
0.307285
0.229328
0.145929
0.06271
-0.0149635
-0.0824323
-0.13612
-0.172261
-0.190427
-0.191505
-0.17801
-0.153021
-0.120643
-0.0429453
-0.0512871
-0.0536935
-0.0484317
-0.0340196
-0.00959832
0.024706
0.0678835
0.117058
0.169168
0.220532
0.26715
0.305078
0.330834
0.341779
0.336424
0.314603
0.277524
0.227666
0.168564
0.104456
0.0398673
-0.0208201
-0.0737575
-0.115946
-0.144191
-0.158099
-0.158326
-0.14681
-0.126043
-0.0992608
-0.0552881
-0.0710412
-0.0833876
-0.0907957
-0.0916842
-0.0849224
-0.069931
-0.0467303
-0.0171164
0.0171006
0.0535072
0.0892785
0.121444
0.147199
0.164214
0.170908
0.166617
0.151677
0.127386
0.0958708
0.0598449
0.0223088
-0.0137659
-0.0457246
-0.0714631
-0.0887929
-0.0973828
-0.097582
-0.090509
-0.0777217
-0.0611809
-0.0720489
-0.0968357
-0.120807
-0.142566
-0.160352
-0.172653
-0.178113
-0.175691
-0.166075
-0.14977
-0.127881
-0.102033
-0.0742169
-0.046578
-0.021172
0.000267127
0.016496
0.0268763
0.0314067
0.0306749
0.0257308
0.0179106
0.00864706
-0.000711372
-0.00904087
-0.0153316
-0.019261
-0.0208019
-0.0201554
-0.0177714
-0.0141928
-0.0849009
-0.117043
-0.150641
-0.184452
-0.216565
-0.245109
-0.268052
-0.283428
-0.290902
-0.289819
-0.280128
-0.262404
-0.237792
-0.207879
-0.174511
-0.139593
-0.104915
-0.0720055
-0.0420353
-0.015788
0.00631711
0.0241605
0.0378399
0.0475834
0.0536871
0.0561253
0.0552868
0.0515821
0.045617
0.0379557
0.0293104
-0.0867759
-0.121773
-0.159861
-0.200051
-0.240421
-0.278885
-0.313013
-0.34024
-0.359405
-0.369021
-0.368195
-0.356741
-0.335183
-0.304697
-0.266969
-0.224011
-0.177987
-0.131031
-0.0851078
-0.0419235
-0.00287261
0.0309734
0.0588553
0.0802988
0.0950999
0.1026
0.103293
0.0978832
0.0874713
0.0732746
0.0568323
-0.0750572
-0.10723
-0.143322
-0.182695
-0.223617
-0.264023
-0.30145
-0.333179
-0.357525
-0.372603
-0.377097
-0.370414
-0.352728
-0.324951
-0.288615
-0.245701
-0.198454
-0.14919
-0.100133
-0.053294
-0.0103879
0.0272134
0.0584938
0.0827834
0.0997585
0.108635
0.109978
0.104605
0.0936862
0.0785729
0.0610584
-0.0530454
-0.0777406
-0.106357
-0.138638
-0.173217
-0.208282
-0.2417
-0.271041
-0.294465
-0.310146
-0.316773
-0.313701
-0.301007
-0.279453
-0.250386
-0.215566
-0.176987
-0.136689
-0.0966028
-0.0584335
-0.0235885
0.00685793
0.0321607
0.0518773
0.0658553
0.0735973
0.0756343
0.0726633
0.0655173
0.0551858
0.0431632
-0.0289068
-0.0443413
-0.063001
-0.0849037
-0.109124
-0.134257
-0.158746
-0.180798
-0.19881
-0.211401
-0.217623
-0.217071
-0.209914
-0.19684
-0.17895
-0.1576
-0.13424
-0.11026
-0.0868669
-0.0650168
-0.0453832
-0.0283694
-0.0141537
-0.00274915
0.00596163
0.0119229
0.0154756
0.0169751
0.0166512
0.0148232
0.0123078
-0.0123485
-0.0202734
-0.0302262
-0.04226
-0.0558279
-0.0699625
-0.0837749
-0.0962867
-0.106505
-0.113761
-0.117711
-0.118383
-0.116154
-0.111667
-0.105719
-0.0991293
-0.0926109
-0.0866799
-0.0816022
-0.0773892
-0.0738388
-0.0706084
-0.067305
-0.0635745
-0.0591475
-0.0537902
-0.0475187
-0.0404795
-0.0331115
-0.0258051
-0.0185459
-0.010346
-0.0151684
-0.0205122
-0.026158
-0.0317642
-0.0367118
-0.0407399
-0.0437059
-0.0455391
-0.0464194
-0.0467367
-0.0470483
-0.0479928
-0.050173
-0.0540446
-0.0598196
-0.0674028
-0.0763783
-0.0860495
-0.0955205
-0.103817
-0.110021
-0.113392
-0.113464
-0.110083
-0.103098
-0.0930221
-0.0805769
-0.0667624
-0.0524918
-0.0384358
-0.0238403
-0.0305393
-0.036077
-0.039686
-0.0410234
-0.0396792
-0.0359157
-0.0303578
-0.0240782
-0.018151
-0.0137468
-0.0119858
-0.013785
-0.0197088
-0.0298643
-0.0438516
-0.0607816
-0.0793588
-0.0980244
-0.115135
-0.129163
-0.13888
-0.143496
-0.142737
-0.13684
-0.126158
-0.111775
-0.0949819
-0.0771545
-0.0594499
-0.0429645
-0.0470478
-0.0588307
-0.0676689
-0.0721055
-0.0716501
-0.0659916
-0.0558293
-0.0424804
-0.0282623
-0.0151412
-0.00507212
0.000256667
-0.000358754
-0.00745702
-0.0208188
-0.0394696
-0.0617873
-0.0856865
-0.108868
-0.129094
-0.144466
-0.153645
-0.155994
-0.151618
-0.141308
-0.126177
-0.107884
-0.0882215
-0.0687865
-0.0507654
-0.0354119
-0.0698802
-0.0866915
-0.0987441
-0.103937
-0.101611
-0.0915296
-0.0748102
-0.0534274
-0.0309023
-0.010064
0.00637159
0.0161571
0.0177947
0.0107456
-0.00448986
-0.0264243
-0.0527772
-0.0807539
-0.107393
-0.129936
-0.146166
-0.154669
-0.154969
-0.147536
-0.133672
-0.11524
-0.0943939
-0.0733225
-0.0537879
-0.0369508
-0.0240462
-0.0824259
-0.101027
-0.113138
-0.116231
-0.109592
-0.0931162
-0.0683818
-0.0380199
-0.00656571
0.0223576
0.0453328
0.0595908
0.0633451
0.056029
0.0383658
0.0122765
-0.0193826
-0.0531767
-0.0855212
-0.113128
-0.133399
-0.144724
-0.146617
-0.13971
-0.125593
-0.106604
-0.0852414
-0.0639746
-0.0447608
-0.028833
-0.0173746
-0.0793975
-0.0951182
-0.10298
-0.100355
-0.0866456
-0.0619756
-0.0283835
0.0109121
0.0507342
0.0868538
0.115325
0.132982
0.137814
0.129215
0.108057
0.0765647
0.0380195
-0.00364803
-0.0443362
-0.0802658
-0.108414
-0.126834
-0.134814
-0.132866
-0.122557
-0.106273
-0.0866465
-0.0662733
-0.0473331
-0.0312708
-0.0192194
-0.0622785
-0.0712831
-0.0717098
-0.06115
-0.039275
-0.00648909
0.034803
0.0809855
0.126729
0.167515
0.19916
0.218329
0.222915
0.212299
0.187414
0.150619
0.105389
0.0558995
0.00654263
-0.0385798
-0.0760991
-0.103711
-0.12035
-0.1262
-0.122536
-0.111403
-0.095339
-0.0768803
-0.0583864
-0.041563
-0.0275831
-0.0384324
-0.0398442
-0.0329687
-0.0158689
0.011479
0.04845
0.0925486
0.14016
0.186395
0.226947
0.257849
0.275953
0.27928
0.267263
0.240796
0.202121
0.154551
0.102082
0.0489509
-0.00082347
-0.0438571
-0.0777097
-0.101061
-0.113744
-0.116617
-0.111157
-0.0995695
-0.0841482
-0.0671914
-0.0505313
-0.0354297
-0.0169883
-0.0130564
-0.0021914
0.0169824
0.0442719
0.0789994
0.118919
0.16091
0.201054
0.23577
0.261777
0.276487
0.278282
0.266712
0.242536
0.207627
0.164746
0.117241
0.0686799
0.022486
-0.0184015
-0.0517818
-0.076348
-0.0917265
-0.0983936
-0.0972595
-0.0900506
-0.0784996
-0.0646374
-0.0501202
-0.0361519
-0.00327688
0.00238904
0.0128757
0.0290247
0.0505723
0.0769608
0.106527
0.137024
0.165819
0.190423
0.208575
0.218498
0.219094
0.210074
0.191987
0.166145
0.134482
0.0993365
0.0632142
0.0285329
-0.00260371
-0.0285825
-0.0483918
-0.0616529
-0.0685758
-0.0696474
-0.065949
-0.0586543
-0.0492225
-0.0388027
-0.0284542
0.066606
0.0858594
0.103194
0.116363
0.124291
0.125879
0.120837
0.109281
0.0927208
0.0722982
0.0495331
0.0262201
0.00433639
-0.014089
-0.0271192
-0.0330743
-0.0306914
-0.0192919
0.00108082
0.0295425
0.0643514
0.102973
0.142285
0.178832
0.209211
0.228708
0.235364
0.228064
0.208277
0.177623
0.140315
0.0804715
0.103444
0.123694
0.138599
0.146772
0.147026
0.138943
0.122432
0.0994044
0.071241
0.0398156
0.0073934
-0.0234684
-0.0500648
-0.0697222
-0.0800215
-0.079026
-0.0655346
-0.0393061
-0.00126921
0.0464187
0.100429
0.156505
0.209819
0.2555
0.286599
0.300513
0.295509
0.272894
0.234796
0.186532
0.0708304
0.0904697
0.107498
0.119422
0.124955
0.123115
0.113162
0.0950422
0.070342
0.0402156
0.00633094
-0.0291833
-0.0637919
-0.0946575
-0.11881
-0.133381
-0.135875
-0.124494
-0.0984479
-0.0582616
-0.00592273
0.055132
0.12024
0.183902
0.240387
0.28157
0.303725
0.305009
0.286123
0.249131
0.199851
0.0361209
0.0455101
0.0535212
0.0584109
0.05948
0.055909
0.0471752
0.0330742
0.0141247
-0.00929625
-0.0364024
-0.0659535
-0.0962038
-0.12491
-0.149426
-0.166887
-0.174493
-0.169867
-0.151437
-0.118844
-0.0731993
-0.0171778
0.0451202
0.108497
0.167264
0.213399
0.242605
0.252164
0.242444
0.214812
0.174697
-0.0138064
-0.018609
-0.0226059
-0.0262089
-0.0292213
-0.0319444
-0.0347571
-0.0380863
-0.0429928
-0.0503371
-0.0607968
-0.0746822
-0.0917348
-0.110992
-0.130748
-0.148644
-0.161904
-0.167695
-0.163558
-0.147888
-0.120326
-0.0819978
-0.0355126
0.0152226
0.0654997
0.108563
0.140019
0.156786
0.158416
0.145217
0.121224
-0.0622057
-0.079982
-0.0941132
-0.103587
-0.107218
-0.104735
-0.0963745
-0.0828801
-0.0670397
-0.0511702
-0.0377021
-0.028843
-0.0262153
-0.0305506
-0.0414909
-0.0575421
-0.0762388
-0.0944628
-0.108893
-0.116546
-0.115282
-0.104211
-0.0838684
-0.0562065
-0.024283
0.00718436
0.0342204
0.053652
0.0642039
0.0650102
0.0582459
-0.0958254
-0.121414
-0.140405
-0.150548
-0.14981
-0.137404
-0.113522
-0.0793001
-0.0390517
0.00347559
0.0441092
0.0787203
0.103739
0.116627
0.11624
0.103017
0.0789222
0.0471851
0.0118649
-0.0227199
-0.0526037
-0.0747184
-0.087267
-0.0899117
-0.083677
-0.0708541
-0.0545784
-0.0378184
-0.0226065
-0.0109059
-0.00267078
-0.106369
-0.132508
-0.149475
-0.154293
-0.144389
-0.118652
-0.0773681
-0.0220967
0.0418004
0.109405
0.175105
0.233161
0.278335
0.306503
0.315158
0.303733
0.273645
0.228119
0.171779
0.110078
0.0486088
-0.00755261
-0.0543951
-0.0893436
-0.111377
-0.120386
-0.118489
-0.10826
-0.0923376
-0.073602
-0.0540075
-0.0949508
-0.115263
-0.124638
-0.119964
-0.0984964
-0.059035
-0.0020675
0.0704741
0.152769
0.239151
0.323075
0.397729
0.456731
0.494835
0.50853
0.496465
0.459594
0.40107
0.325884
0.24031
0.15119
0.0651846
-0.0118912
-0.0755943
-0.123151
-0.152368
-0.164411
-0.161435
-0.146497
-0.123193
-0.0951203
-0.069792
-0.0810232
-0.0806677
-0.0659755
-0.0343458
0.01532
0.0823188
0.164518
0.256221
0.351536
0.443609
0.525222
0.58951
0.630698
0.644749
0.629853
0.586634
0.518118
0.429419
0.327221
0.219067
0.112577
0.0147105
-0.0688488
-0.134118
-0.177375
-0.199118
-0.201151
-0.186749
-0.159994
-0.125569
-0.0429592
-0.0460527
-0.0381571
-0.0171672
0.0192092
0.0718777
0.140062
0.221726
0.311794
0.404713
0.493967
0.572622
0.634001
0.672403
0.683738
0.66604
0.619711
0.547537
0.454426
0.346956
0.232689
0.11942
0.0144284
-0.0761604
-0.147855
-0.196147
-0.221215
-0.224641
-0.209655
-0.180517
-0.142296
-0.0257203
-0.0253319
-0.0157499
0.00446422
0.037299
0.0835182
0.14255
0.212853
0.290346
0.370354
0.447297
0.515133
0.567956
0.600627
0.609376
0.592272
0.549499
0.483389
0.398233
0.299892
0.195192
0.0912467
-0.00522768
-0.0885137
-0.154348
-0.198278
-0.220456
-0.222294
-0.206681
-0.177626
-0.13982
-0.0244149
-0.0270514
-0.0232483
-0.012062
0.00832985
0.038716
0.0790747
0.128774
0.184974
0.244329
0.302659
0.35527
0.397428
0.42488
0.434367
0.424053
0.393781
0.345146
0.28136
0.206962
0.127321
0.0480797
-0.0254066
-0.0885748
-0.138026
-0.170172
-0.18527
-0.184516
-0.170149
-0.145425
-0.113937
-0.0383493
-0.0498212
-0.0581621
-0.0626852
-0.0615479
-0.0537266
-0.0383966
-0.0149665
0.0150925
0.0500421
0.0873678
0.12396
0.156443
0.181565
0.19661
0.199765
0.190358
0.168965
0.137344
0.0982437
0.0550555
0.0114051
-0.0292512
-0.0639912
-0.0906788
-0.107181
-0.113826
-0.111468
-0.101454
-0.0858512
-0.0666329
-0.0603017
-0.0833984
-0.106717
-0.129655
-0.150213
-0.166972
-0.178134
-0.181784
-0.178032
-0.166964
-0.149412
-0.126914
-0.101526
-0.0755674
-0.0513051
-0.0306434
-0.0149004
-0.0046717
0.000189565
0.000480835
-0.0025465
-0.00743185
-0.012749
-0.0173223
-0.0203521
-0.0213588
-0.0206122
-0.0184966
-0.0153959
-0.0119753
-0.00842603
-0.0795763
-0.112856
-0.149234
-0.18816
-0.227467
-0.265302
-0.299014
-0.325543
-0.343787
-0.352397
-0.350767
-0.339111
-0.318402
-0.290222
-0.256532
-0.219403
-0.180795
-0.142387
-0.105481
-0.0709957
-0.0395341
-0.0114827
0.0128778
0.0332801
0.0494457
0.0604603
0.0662458
0.0669131
0.0628946
0.0547811
0.0439073
-0.086524
-0.124744
-0.168046
-0.216032
-0.266493
-0.317255
-0.365166
-0.406471
-0.439131
-0.460821
-0.469949
-0.465833
-0.448722
-0.419716
-0.380593
-0.333561
-0.281035
-0.22543
-0.169006
-0.113798
-0.0615785
-0.0138731
0.0280173
0.0629956
0.0901983
0.107948
0.116403
0.116044
0.107764
0.0929228
0.0737526
-0.0768288
-0.112947
-0.155016
-0.202943
-0.254689
-0.307986
-0.359668
-0.405889
-0.444067
-0.471483
-0.486134
-0.486948
-0.473842
-0.447676
-0.4101
-0.363316
-0.309846
-0.252306
-0.193222
-0.134924
-0.0794759
-0.0286514
0.0160589
0.0534419
0.0825961
0.101845
0.111498
0.112147
0.104682
0.0905467
0.0720642
-0.0537383
-0.0817372
-0.115466
-0.155211
-0.199306
-0.245653
-0.291543
-0.333629
-0.369247
-0.395877
-0.41166
-0.415605
-0.40764
-0.388555
-0.359848
-0.323494
-0.281711
-0.236734
-0.190649
-0.14529
-0.102192
-0.0625947
-0.027477
0.00239927
0.0264921
0.0437185
0.0543494
0.0587608
0.0574104
0.051198
0.0417955
-0.0270664
-0.0444405
-0.0664523
-0.0936754
-0.124918
-0.15845
-0.192338
-0.224155
-0.251629
-0.272914
-0.286726
-0.292504
-0.290414
-0.281254
-0.266287
-0.247029
-0.225022
-0.201655
-0.178042
-0.15498
-0.132957
-0.112229
-0.0929171
-0.0751
-0.0588566
-0.0444917
-0.0320178
-0.0215631
-0.0133681
-0.0074414
-0.00320013
-0.00911345
-0.0178788
-0.0296299
-0.0449499
-0.0630619
-0.0826934
-0.102772
-0.121963
-0.138825
-0.152472
-0.162455
-0.168832
-0.172103
-0.173071
-0.172664
-0.171749
-0.170955
-0.170563
-0.170478
-0.170261
-0.169246
-0.166685
-0.161915
-0.154482
-0.144218
-0.130937
-0.115164
-0.0977082
-0.0795582
-0.0616299
-0.0444658
-0.009118
-0.0148051
-0.0215424
-0.0295322
-0.0382204
-0.0467545
-0.054821
-0.0621192
-0.0684052
-0.0738649
-0.0789827
-0.0844891
-0.0912219
-0.0999428
-0.111163
-0.124999
-0.141075
-0.158523
-0.176061
-0.192138
-0.205151
-0.213666
-0.216616
-0.213443
-0.204145
-0.18866
-0.168188
-0.144261
-0.118483
-0.0923852
-0.0673235
-0.0287433
-0.0377394
-0.0457183
-0.0521377
-0.0564243
-0.0580415
-0.0572503
-0.054617
-0.0513587
-0.0487428
-0.0481904
-0.0510937
-0.0585988
-0.0713872
-0.0895155
-0.11233
-0.13848
-0.166037
-0.192707
-0.216092
-0.234005
-0.244742
-0.247298
-0.241464
-0.22783
-0.207107
-0.181231
-0.152391
-0.122612
-0.0936401
-0.0671788
-0.060873
-0.0773284
-0.0906045
-0.0992177
-0.1024
-0.0998315
-0.0922133
-0.0808408
-0.0685249
-0.057593
-0.0503877
-0.0489503
-0.054726
-0.0683178
-0.0893463
-0.116432
-0.147333
-0.179185
-0.208853
-0.233317
-0.25006
-0.257395
-0.254658
-0.242261
-0.221604
-0.194552
-0.163742
-0.131898
-0.101311
-0.0736648
-0.050611
-0.0925225
-0.116308
-0.134665
-0.145225
-0.146997
-0.139841
-0.124892
-0.10415
-0.0819871
-0.0617761
-0.0467753
-0.0396852
-0.0422792
-0.0551307
-0.0774918
-0.107342
-0.141635
-0.17667
-0.208551
-0.233699
-0.249311
-0.253719
-0.246575
-0.228854
-0.202677
-0.171007
-0.137053
-0.103942
-0.0741896
-0.0493778
-0.0309289
-0.110628
-0.137356
-0.156403
-0.164813
-0.161502
-0.146548
-0.121624
-0.0895069
-0.0559152
-0.0252331
-0.00161193
0.0115828
0.0122091
-0.000348618
-0.0250713
-0.0594053
-0.0995995
-0.141171
-0.179472
-0.210289
-0.230376
-0.237846
-0.232361
-0.215112
-0.188587
-0.156373
-0.122064
-0.0890629
-0.0601625
-0.0370164
-0.020908
-0.107983
-0.131269
-0.144966
-0.145973
-0.133331
-0.107389
-0.0704352
-0.0260348
0.0192059
0.0600719
0.0916797
0.110103
0.112859
0.0992412
0.0704196
0.0293107
-0.0198094
-0.0718295
-0.121433
-0.163754
-0.194961
-0.212681
-0.216211
-0.206509
-0.185947
-0.158069
-0.126581
-0.0950135
-0.0664543
-0.0428552
-0.0255042
-0.0862383
-0.100697
-0.104384
-0.0944863
-0.0703663
-0.0326715
0.0157486
0.0706872
0.125261
0.17378
0.210951
0.232531
0.235834
0.22007
0.186448
0.138034
0.079359
0.0158788
-0.0466643
-0.102912
-0.148485
-0.180429
-0.197455
-0.199961
-0.189816
-0.169935
-0.143866
-0.115063
-0.0868409
-0.0615425
-0.0406821
-0.0549669
-0.0591568
-0.0526868
-0.0333569
-0.000918979
0.0437741
0.0976415
0.156307
0.213393
0.263367
0.301114
0.322542
0.325052
0.307863
0.272105
0.220686
0.157935
0.0891139
0.0198219
-0.0446128
-0.099692
-0.142171
-0.170308
-0.183915
-0.184201
-0.173163
-0.153879
-0.129527
-0.103291
-0.0777193
-0.0546208
-0.0261207
-0.0227227
-0.0101877
0.0129754
0.0467103
0.0901557
0.140438
0.193645
0.244602
0.288622
0.32139
0.339465
0.340668
0.324344
0.291441
0.244398
0.186863
0.123291
0.0584627
-0.00300471
-0.0571243
-0.100889
-0.132496
-0.151409
-0.158263
-0.154206
-0.141687
-0.123114
-0.101319
-0.0786331
-0.0569034
-0.00706608
-0.000738801
0.0121297
0.0323788
0.0598159
0.0937568
0.131999
0.171632
0.209117
0.241127
0.264619
0.277178
0.277284
0.264502
0.239521
0.204082
0.160779
0.112783
0.0635136
0.0162956
-0.0259566
-0.0609886
-0.0873668
-0.104532
-0.112749
-0.112612
-0.105658
-0.0935542
-0.0783778
-0.0617792
-0.0454356
0.0789834
0.100907
0.119931
0.133397
0.140048
0.138766
0.129256
0.111936
0.0888514
0.0615581
0.0320127
0.00243692
-0.0247973
-0.0473134
-0.0628883
-0.069627
-0.066132
-0.0516854
-0.0264019
0.00863364
0.0513406
0.0987187
0.147071
0.192303
0.230365
0.255664
0.265701
0.259439
0.238296
0.204179
0.161802
0.0969865
0.123361
0.145613
0.160543
0.166541
0.162455
0.147876
0.123112
0.090838
0.0529999
0.0120567
-0.0291659
-0.0675996
-0.100092
-0.123596
-0.135407
-0.133391
-0.116265
-0.083842
-0.0372732
0.0208747
0.0866833
0.155146
0.220577
0.277209
0.316857
0.336174
0.333539
0.310035
0.268136
0.213798
0.0896017
0.112848
0.13178
0.143261
0.14575
0.138314
0.120295
0.0921547
0.0563876
0.0148097
-0.0302514
-0.0760562
-0.11953
-0.157375
-0.186238
-0.202946
-0.204781
-0.189824
-0.157292
-0.107896
-0.0440177
0.0303011
0.109588
0.187385
0.256936
0.308686
0.337949
0.342992
0.324176
0.283967
0.22878
0.0546219
0.0673006
0.076757
0.0805461
0.0778028
0.0677102
0.0500687
0.0252502
-0.00525406
-0.0403746
-0.0786763
-0.118362
-0.157229
-0.192677
-0.221773
-0.241423
-0.248642
-0.24092
-0.216646
-0.175559
-0.119055
-0.0503111
0.0258526
0.10334
0.175454
0.232762
0.269961
0.284249
0.275664
0.245853
0.200838
0.0030589
0.000989882
-0.00220247
-0.00756168
-0.0149375
-0.0246492
-0.0364748
-0.0502145
-0.0659322
-0.083802
-0.10392
-0.126163
-0.149985
-0.174258
-0.197186
-0.216342
-0.228882
-0.231892
-0.222848
-0.200155
-0.163593
-0.114606
-0.0563261
0.0066274
0.0686936
0.121869
0.160857
0.182337
0.185557
0.170993
0.143131
-0.0465601
-0.0619442
-0.0756793
-0.0872858
-0.095499
-0.100076
-0.10036
-0.0964091
-0.0899775
-0.0826951
-0.0764781
-0.0732364
-0.0744945
-0.0810493
-0.0926904
-0.108081
-0.124863
-0.13995
-0.149992
-0.15196
-0.143734
-0.124554
-0.0952586
-0.0582776
-0.0173027
0.0219182
0.0547276
0.0775945
0.0890271
0.0882559
0.0777504
-0.0798463
-0.102932
-0.121461
-0.13367
-0.137343
-0.131724
-0.115861
-0.090137
-0.057755
-0.0217512
0.0141784
0.0460976
0.0703691
0.0841754
0.0859872
0.0758526
0.0554218
0.02774
-0.00318594
-0.033
-0.057673
-0.0741253
-0.0806615
-0.0771948
-0.0651522
-0.0476447
-0.0281977
-0.0102025
0.00421363
0.0131682
0.0169128
-0.0874168
-0.110178
-0.12588
-0.132062
-0.125938
-0.106428
-0.07252
-0.0249463
0.0321644
0.0946641
0.157433
0.214885
0.261623
0.293104
0.306264
0.299958
0.275114
0.234624
0.18296
0.125566
0.0681218
0.0157943
-0.0273756
-0.0588992
-0.0779775
-0.0851723
-0.0827134
-0.0736346
-0.0605364
-0.0461926
-0.0323768
-0.0702256
-0.0854541
-0.0919475
-0.087243
-0.0684332
-0.034371
0.0157823
0.080975
0.15677
0.23835
0.319727
0.394277
0.455463
0.497591
0.516528
0.510265
0.479172
0.425978
0.355446
0.273796
0.187937
0.104642
0.0298043
-0.0321416
-0.0785505
-0.107829
-0.121064
-0.120922
-0.110308
-0.092688
-0.071452
-0.0370296
-0.0407604
-0.0352043
-0.0184818
0.0120437
0.0573466
0.117962
0.192643
0.277228
0.366752
0.455014
0.535092
0.600067
0.643804
0.661718
0.651385
0.612872
0.548787
0.464002
0.365121
0.259725
0.155512
0.0594957
-0.0226733
-0.0871517
-0.130829
-0.15407
-0.159287
-0.149535
-0.128774
-0.101429
-0.00107566
0.00614191
0.0219481
0.0473109
0.0843718
0.133789
0.19585
0.269357
0.350887
0.435878
0.518585
0.592523
0.651146
0.688589
0.700412
0.684209
0.639973
0.570173
0.479539
0.374574
0.262845
0.152149
0.0497188
-0.0384719
-0.10819
-0.155633
-0.180948
-0.186456
-0.17516
-0.15124
-0.119443
0.0247238
0.0381391
0.0582458
0.0850921
0.120306
0.164239
0.217183
0.278329
0.345325
0.414533
0.481259
0.540095
0.585496
0.612435
0.617068
0.597299
0.553133
0.48677
0.402423
0.305915
0.204031
0.103773
0.0116417
-0.0669948
-0.128343
-0.168832
-0.188805
-0.190552
-0.176779
-0.151473
-0.118919
0.0322548
0.0447049
0.060997
0.0805014
0.10449
0.133169
0.167197
0.206543
0.25012
0.295642
0.339916
0.37906
0.408948
0.425727
0.42638
0.409208
0.374142
0.32285
0.258592
0.1859
0.110039
0.0363956
-0.0301013
-0.0854905
-0.127106
-0.152484
-0.162364
-0.158906
-0.14426
-0.121696
-0.0943005
0.0207468
0.0252825
0.0302874
0.0348048
0.0399978
0.0461655
0.0546842
0.066614
0.082198
0.100755
0.120823
0.140242
0.156451
0.166849
0.169243
0.162229
0.145473
0.119804
0.0871405
0.0502454
0.012336
-0.0233684
-0.0540511
-0.0776444
-0.0930078
-0.0993858
-0.0978863
-0.090329
-0.078107
-0.0632946
-0.0472679
-0.00325141
-0.0107887
-0.0211963
-0.0354583
-0.052302
-0.0711062
-0.0895993
-0.105509
-0.117341
-0.124168
-0.125767
-0.122665
-0.115989
-0.107242
-0.0979829
-0.0895057
-0.0826145
-0.077506
-0.073787
-0.0706229
-0.0669817
-0.061914
-0.0547882
-0.0454671
-0.0343402
-0.0224949
-0.0112215
-0.00180019
0.00518406
0.00907232
0.0103192
-0.0286206
-0.0480271
-0.0730353
-0.104517
-0.140993
-0.181398
-0.222658
-0.261447
-0.295242
-0.321789
-0.339508
-0.347652
-0.34627
-0.336095
-0.318306
-0.294272
-0.265336
-0.23268
-0.197275
-0.159949
-0.121498
-0.0828221
-0.0450269
-0.00947074
0.0223146
0.0478078
0.0657559
0.075476
0.0770295
0.0709911
0.0592885
-0.0442535
-0.07106
-0.105143
-0.147298
-0.195901
-0.249478
-0.304515
-0.357062
-0.403924
-0.442039
-0.469027
-0.483405
-0.484635
-0.473063
-0.449732
-0.416154
-0.374089
-0.325382
-0.271865
-0.215356
-0.157693
-0.100774
-0.0465976
0.00276434
0.0452869
0.0778446
0.0993616
0.1096
0.108913
0.098534
0.0811046
-0.0438313
-0.0711427
-0.106153
-0.14972
-0.200257
-0.256056
-0.313685
-0.369169
-0.419073
-0.460175
-0.489934
-0.506734
-0.509938
-0.499843
-0.477505
-0.444501
-0.402705
-0.354097
-0.300647
-0.24428
-0.186885
-0.130348
-0.0765798
-0.0275067
0.0150351
0.0482589
0.0712653
0.0839292
0.0864506
0.079949
0.0668472
-0.0288046
-0.0502273
-0.0786315
-0.115043
-0.158124
-0.206178
-0.256353
-0.305233
-0.349595
-0.386661
-0.414309
-0.431286
-0.437238
-0.432621
-0.418516
-0.396379
-0.367802
-0.334331
-0.29735
-0.258072
-0.217575
-0.176883
-0.137057
-0.0992378
-0.0646126
-0.0349523
-0.0111167
0.00648418
0.0175121
0.0222899
0.0222357
-0.00806824
-0.0205074
-0.0384242
-0.0629781
-0.0932081
-0.12765
-0.164328
-0.200792
-0.234431
-0.263336
-0.286185
-0.30239
-0.312061
-0.315864
-0.314807
-0.309985
-0.302355
-0.292578
-0.280963
-0.267503
-0.251996
-0.234211
-0.214052
-0.191689
-0.16759
-0.142382
-0.117108
-0.0927836
-0.0704886
-0.0510234
-0.0343545
0.00586885
0.000835912
-0.00782294
-0.0211815
-0.038625
-0.0590492
-0.0813766
-0.104241
-0.125972
-0.145707
-0.163065
-0.178197
-0.191672
-0.204279
-0.216793
-0.229743
-0.24322
-0.256794
-0.26954
-0.280159
-0.287196
-0.289293
-0.28543
-0.275103
-0.258395
-0.235265
-0.207166
-0.175873
-0.143184
-0.110895
-0.080236
0.00273854
-0.000350914
-0.0052017
-0.0124516
-0.0216535
-0.0320743
-0.0433179
-0.0549849
-0.0665844
-0.0782798
-0.0905862
-0.104306
-0.120342
-0.139459
-0.162051
-0.187951
-0.216318
-0.245658
-0.273951
-0.298881
-0.318145
-0.329781
-0.332429
-0.325524
-0.309343
-0.284027
-0.251621
-0.214622
-0.175352
-0.136138
-0.0989607
-0.0202705
-0.0280638
-0.0358459
-0.0434678
-0.050405
-0.0562261
-0.0609222
-0.0648399
-0.0688383
-0.0740067
-0.0816467
-0.0930886
-0.109439
-0.131322
-0.158661
-0.190562
-0.225308
-0.260491
-0.293273
-0.320721
-0.340193
-0.349707
-0.348196
-0.335645
-0.313072
-0.281646
-0.24408
-0.203435
-0.162325
-0.123068
-0.0877635
-0.0566054
-0.0735711
-0.0887364
-0.100963
-0.109458
-0.114009
-0.114799
-0.112765
-0.110223
-0.10913
-0.111519
-0.119198
-0.133436
-0.154691
-0.182429
-0.215073
-0.250127
-0.284429
-0.314537
-0.337176
-0.349684
-0.350403
-0.338897
-0.316017
-0.283781
-0.244821
-0.202487
-0.160218
-0.120775
-0.0861286
-0.0580445
-0.0929435
-0.118997
-0.141264
-0.157658
-0.167083
-0.169502
-0.16531
-0.15604
-0.145487
-0.13651
-0.13192
-0.134066
-0.144455
-0.163467
-0.190202
-0.222497
-0.257165
-0.290366
-0.318101
-0.336763
-0.343648
-0.337346
-0.317946
-0.287027
-0.247447
-0.203135
-0.157944
-0.11554
-0.0788386
-0.0494815
-0.028797
-0.115204
-0.145538
-0.169836
-0.185356
-0.190835
-0.186432
-0.172963
-0.152713
-0.130842
-0.111197
-0.0974693
-0.0926688
-0.0986833
-0.115968
-0.143401
-0.178358
-0.217029
-0.254892
-0.287292
-0.310085
-0.320197
-0.31605
-0.297767
-0.267136
-0.227343
-0.182925
-0.138019
-0.0964403
-0.0613683
-0.0344383
-0.0168074
-0.115137
-0.142576
-0.161785
-0.169812
-0.16547
-0.149157
-0.12233
-0.0881294
-0.0527283
-0.0209128
0.00277732
0.0146494
0.0123598
-0.00474601
-0.0354883
-0.0769518
-0.124852
-0.174057
-0.219224
-0.255499
-0.279122
-0.287886
-0.281378
-0.260957
-0.229501
-0.19125
-0.150334
-0.110621
-0.0756281
-0.0473664
-0.0271251
-0.0938978
-0.112157
-0.120489
-0.116188
-0.0983788
-0.0677216
-0.0264001
0.0216555
0.0697939
0.112545
0.144751
0.162204
0.162178
0.143797
0.108179
0.0583383
-0.00118711
-0.0648631
-0.126813
-0.181517
-0.224448
-0.252553
-0.26454
-0.26091
-0.243755
-0.216304
-0.182403
-0.145828
-0.110389
-0.0786614
-0.0524276
-0.0613542
-0.068348
-0.0649843
-0.0491372
-0.020356
0.0205165
0.0708319
0.126319
0.180632
0.228242
0.263961
0.283546
0.284206
0.264965
0.226797
0.17254
0.106563
0.0342794
-0.0384532
-0.105976
-0.163431
-0.207231
-0.235362
-0.24747
-0.244735
-0.229102
-0.203837
-0.17247
-0.138681
-0.10543
-0.0750458
-0.0305297
-0.0288426
-0.0179173
0.00367547
0.036023
0.0782856
0.127799
0.180626
0.23149
0.275561
0.308328
0.326103
0.326447
0.308477
0.27298
0.222339
0.160273
0.0914354
0.0209258
-0.0462345
-0.105607
-0.153733
-0.188413
-0.208809
-0.215389
-0.209052
-0.192384
-0.168053
-0.139386
-0.109159
-0.0798907
-0.00953214
-0.00401348
0.00834678
0.0283224
0.0558029
0.0901198
0.129121
0.169799
0.208464
0.241601
0.265947
0.278846
0.278553
0.264444
0.237099
0.198241
0.150555
0.0974141
0.0425297
-0.0104075
-0.0580819
-0.0978388
-0.127887
-0.147384
-0.156424
-0.155364
-0.14579
-0.129589
-0.10924
-0.0867231
-0.064408
0.0789762
0.099774
0.116813
0.127359
0.130207
0.124269