# vtk DataFile Version 2.0
Func
ASCII
DATASET RECTILINEAR_GRID
DIMENSIONS 31 31 31
X_COORDINATES 31 double
-9.67742
-9.03226
-8.3871
-7.74194
-7.09677
-6.45161
-5.80645
-5.16129
-4.51613
-3.87097
-3.22581
-2.58065
-1.93548
-1.29032
-0.645161
0
0.645161
1.29032
1.93548
2.58065
3.22581
3.87097
4.51613
5.16129
5.80645
6.45161
7.09677
7.74194
8.3871
9.03226
9.67742
Y_COORDINATES 31 double
-9.67742
-9.03226
-8.3871
-7.74194
-7.09677
-6.45161
-5.80645
-5.16129
-4.51613
-3.87097
-3.22581
-2.58065
-1.93548
-1.29032
-0.645161
0
0.645161
1.29032
1.93548
2.58065
3.22581
3.87097
4.51613
5.16129
5.80645
6.45161
7.09677
7.74194
8.3871
9.03226
9.67742
Z_COORDINATES 31 double
-9.67742
-9.03226
-8.3871
-7.74194
-7.09677
-6.45161
-5.80645
-5.16129
-4.51613
-3.87097
-3.22581
-2.58065
-1.93548
-1.29032
-0.645161
0
0.645161
1.29032
1.93548
2.58065
3.22581
3.87097
4.51613
5.16129
5.80645
6.45161
7.09677
7.74194
8.3871
9.03226
9.67742
POINT_DATA 29791
SCALARS data double 1
LOOKUP_TABLE default
-0.0395956
-0.0572808
-0.0782472
-0.101652
-0.126499
-0.151204
-0.174007
-0.192874
-0.206054
-0.211768
-0.208641
-0.195867
-0.173334
-0.141665
-0.102198
-0.0568807
-0.00811277
0.0414534
0.0891355
0.132425
0.169178
0.197756
0.217129
0.226899
0.227286
0.218237
0.201072
0.177318
0.149355
0.119009
0.0888061
-0.0642995
-0.0913759
-0.122721
-0.156766
-0.192108
-0.226542
-0.257656
-0.28277
-0.299773
-0.306409
-0.300968
-0.282495
-0.250931
-0.207175
-0.153043
-0.0911379
-0.0246494
0.0429088
0.107982
0.167239
0.217817
0.257515
0.284919
0.299446
0.301333
0.290357
0.268362
0.237401
0.200504
0.160193
0.119844
-0.0919553
-0.12753
-0.167046
-0.208172
-0.249163
-0.287424
-0.32047
-0.345695
-0.361454
-0.365718
-0.357033
-0.334671
-0.298761
-0.250328
-0.191254
-0.124165
-0.0522468
0.0209891
0.0919663
0.157285
0.213954
0.259586
0.292531
0.311942
0.317805
0.309531
0.288695
0.257556
0.219192
0.176297
0.132855
-0.119235
-0.160984
-0.204712
-0.247281
-0.286823
-0.32069
-0.347105
-0.364419
-0.372437
-0.370225
-0.357277
-0.33354
-0.299454
-0.25595
-0.204431
-0.146722
-0.0849991
-0.0216814
0.0406953
0.0995968
0.152625
0.197646
0.232926
0.257218
0.269881
0.269614
0.257102
0.233718
0.202228
0.16487
0.125879
-0.143518
-0.188612
-0.232156
-0.270337
-0.301382
-0.32302
-0.334789
-0.336762
-0.331024
-0.318476
-0.300143
-0.277002
-0.249882
-0.2194
-0.185982
-0.14992
-0.1115
-0.0711086
-0.0293361
0.0129247
0.0544416
0.0936657
0.128843
0.158152
0.179942
0.19174
0.19272
0.182904
0.164113
0.137779
0.107936
-0.162287
-0.207901
-0.247689
-0.277268
-0.295117
-0.29962
-0.291951
-0.274289
-0.251363
-0.226246
-0.201756
-0.180033
-0.162294
-0.148695
-0.138397
-0.12978
-0.120787
-0.109305
-0.0935541
-0.0724376
-0.0457905
-0.0144818
0.0196729
0.054113
0.085921
0.111099
0.127021
0.132077
0.12696
0.112212
0.0916006
-0.172465
-0.215699
-0.248973
-0.26743
-0.269915
-0.25561
-0.227325
-0.189322
-0.148844
-0.111066
-0.0805077
-0.0603911
-0.052242
-0.055693
-0.0686023
-0.0874126
-0.107727
-0.124957
-0.134988
-0.134791
-0.122872
-0.0994908
-0.066597
-0.0275543
0.0134
0.0506075
0.0796904
0.0974534
0.103536
0.0977247
0.0835236
-0.172282
-0.210739
-0.235954
-0.242819
-0.230586
-0.199247
-0.152952
-0.0976509
-0.0425252
0.00560218
0.0408931
0.0593256
0.0591995
0.0413771
0.00911925
-0.0323975
-0.0768448
-0.11761
-0.14869
-0.165515
-0.165557
-0.148647
-0.116918
-0.0744615
-0.026662
0.0193217
0.0576909
0.0839885
0.0970482
0.0961597
0.0846503
-0.160835
-0.192522
-0.208995
-0.205211
-0.180833
-0.136595
-0.0775262
-0.0106544
0.0537395
0.107849
0.145085
0.161012
0.153924
0.125098
0.0786017
0.0207259
-0.0408977
-0.0983085
-0.144259
-0.173174
-0.181868
-0.169916
-0.139601
-0.0955339
-0.0438863
0.00712161
0.0507553
0.0817259
0.0983449
0.0996183
0.0887345
-0.138122
-0.161404
-0.168977
-0.15627
-0.123355
-0.0715936
-0.00640104
0.0647993
0.131559
0.185826
0.220888
0.232332
0.218629
0.181385
0.125134
0.0567342
-0.0155584
-0.0831579
-0.138248
-0.174796
-0.189309
-0.181236
-0.152912
-0.109162
-0.0565018
-0.00359649
0.0423845
0.0757546
0.0945203
0.0975103
0.08772
-0.104736
-0.118143
-0.116731
-0.0968564
-0.0590042
-0.00506416
0.0595909
0.12776
0.189695
0.237786
0.265787
0.269726
0.248449
0.203846
0.140636
0.0657809
-0.0124236
-0.0853895
-0.145313
-0.186166
-0.204438
-0.199533
-0.173723
-0.131752
-0.0800631
-0.0271439
0.0198209
0.0550881
0.0764871
0.0826755
0.0763371
-0.0618494
-0.0639434
-0.053219
-0.0273878
0.0126228
0.0644651
0.123108
0.182042
0.232922
0.269127
0.285369
0.278479
0.247872
0.195733
0.1268
0.0478179
-0.0332923
-0.108395
-0.170132
-0.21283
-0.23319
-0.230652
-0.20735
-0.167753
-0.11794
-0.0657607
-0.0181208
0.0194143
0.0445596
0.0557836
0.0553424
-0.0117323
-0.00124349
0.0193221
0.0506001
0.0911749
0.138284
0.187408
0.233015
0.268641
0.289026
0.290182
0.270008
0.228661
0.168666
0.0947114
0.0131547
-0.068705
-0.143472
-0.204522
-0.246796
-0.267397
-0.265911
-0.24436
-0.206876
-0.15905
-0.107896
-0.0598617
-0.0201816
0.00880762
0.0254295
0.031483
0.0414502
0.0651139
0.0957872
0.132379
0.17296
0.214402
0.252761
0.283599
0.302553
0.305898
0.291107
0.257282
0.205407
0.138388
0.0608416
-0.0213391
-0.101601
-0.173445
-0.231161
-0.270482
-0.289083
-0.28684
-0.265762
-0.22971
-0.183803
-0.134279
-0.0870201
-0.0468145
-0.0159415
0.0039283
0.0142357
0.0911439
0.127105
0.167115
0.208562
0.249048
0.285174
0.31358
0.33089
0.33479
0.323052
0.294566
0.249597
0.189914
0.118761
0.0406436
-0.0390579
-0.114594
-0.18044
-0.231883
-0.26556
-0.279841
-0.275017
-0.253215
-0.218131
-0.174503
-0.128003
-0.0838751
-0.0463562
-0.0175033
0.00125017
0.0111953
0.128939
0.174128
0.220922
0.265677
0.305682
0.337438
0.358156
0.365386
0.358526
0.336611
0.299694
0.248958
0.186751
0.116494
0.0424659
-0.0305318
-0.0975889
-0.154164
-0.196555
-0.222315
-0.230544
-0.222
-0.198996
-0.165135
-0.124843
-0.0834575
-0.0455186
-0.0146179
0.00758905
0.020137
0.0244148
0.146483
0.195446
0.24443
0.289441
0.327728
0.35595
0.371862
0.373745
0.362133
0.336914
0.298868
0.249679
0.191908
0.128869
0.0644256
0.0027003
-0.0522537
-0.0968386
-0.12828
-0.144956
-0.146602
-0.134373
-0.110722
-0.0791386
-0.0437273
-0.00961904
0.0193918
0.0404215
0.0523473
0.0548095
0.0494911
0.138383
0.183986
0.229072
0.270029
0.304424
0.32937
0.34314
0.344516
0.334445
0.313167
0.281649
0.241558
0.195219
0.145492
0.0955966
0.0488804
0.0085481
-0.0226443
-0.0426846
-0.0505725
-0.046472
-0.0317429
-0.00881412
0.0190547
0.0481613
0.0736022
0.0923275
0.102156
0.102533
0.0936899
0.0776836
0.105005
0.140038
0.175015
0.207324
0.235194
0.256461
0.269873
0.27449
0.270965
0.2594
0.24043
0.215218
0.185432
0.153169
0.120827
0.0909218
0.0658738
0.047755
0.0380415
0.0373769
0.0454419
0.0609254
0.0816346
0.104701
0.126927
0.143763
0.152837
0.152581
0.142931
0.12456
0.0998411
0.0537629
0.0730132
0.09336
0.113535
0.132654
0.149438
0.163041
0.172623
0.178029
0.178871
0.175096
0.167043
0.155473
0.141558
0.126813
0.112964
0.101773
0.0948208
0.0932814
0.097696
0.107836
0.122654
0.140365
0.158604
0.17473
0.184687
0.18664
0.179477
0.16347
0.139504
0.110119
-0.00203954
-5.78436e-06
0.00444933
0.0113801
0.0208034
0.0323125
0.0453788
0.05917
0.0725445
0.0845171
0.0942674
0.101267
0.105383
0.106922
0.106628
0.105589
0.105084
0.10639
0.110559
0.118191
0.129276
0.143119
0.158379
0.173189
0.185413
0.191543
0.190092
0.180207
0.162328
0.137335
0.107764
-0.0468463
-0.0589471
-0.0677357
-0.0722165
-0.071691
-0.0658964
-0.0551345
-0.0402289
-0.0230711
-0.00507204
0.0124132
0.0282636
0.0417401
0.0525831
0.061036
0.0677878
0.0738292
0.0802665
0.088106
0.0980214
0.110182
0.124155
0.138918
0.152949
0.164455
0.170397
0.16944
0.160809
0.144977
0.122701
0.096376
-0.0677144
-0.0870683
-0.103163
-0.114703
-0.120714
-0.120614
-0.114548
-0.10323
-0.0887184
-0.0724342
-0.0557767
-0.0399398
-0.0257594
-0.0136086
-0.00336809
0.0055226
0.0139276
0.0228377
0.0331655
0.0455255
0.0600683
0.076382
0.0935033
0.110001
0.124183
0.133309
0.13603
0.131519
0.120231
0.102782
0.0813796
-0.058689
-0.0766425
-0.0925762
-0.10562
-0.115
-0.120214
-0.121293
-0.118668
-0.113808
-0.107609
-0.100907
-0.09435
-0.0882922
-0.0827276
-0.077289
-0.0713093
-0.0639535
-0.0543773
-0.0419036
-0.0262044
-0.00743081
0.0137191
0.0360378
0.057908
0.0775111
0.0922052
0.100529
0.101561
0.0957415
0.0836164
0.0672356
-0.0228599
-0.0316101
-0.0406377
-0.0501126
-0.0598649
-0.0698203
-0.079892
-0.0900471
-0.100472
-0.111053
-0.121528
-0.13147
-0.140272
-0.147163
-0.151257
-0.15164
-0.147485
-0.138181
-0.123456
-0.1035
-0.0790256
-0.0512757
-0.0219398
0.00698228
0.0333985
0.0546357
0.0691008
0.0758
0.0752095
0.0678919
0.055804
0.0290039
0.0341713
0.0361804
0.0334657
0.0253743
0.0113562
-0.00836423
-0.0331598
-0.0615252
-0.0920537
-0.123089
-0.152847
-0.179518
-0.201394
-0.216969
-0.225058
-0.22488
-0.21615
-0.199131
-0.17467
-0.144179
-0.109565
-0.0730863
-0.0371792
-0.00422551
0.0230591
0.0429995
0.0545987
0.0584083
0.0550638
0.0464881
0.0808178
0.10015
0.113556
0.118161
0.112522
0.0954687
0.0673745
0.0294619
-0.0151202
-0.0637265
-0.113378
-0.16102
-0.203744
-0.239001
-0.264767
-0.279668
-0.283037
-0.274952
-0.256216
-0.228308
-0.193278
-0.153609
-0.11202
-0.0712583
-0.0338743
-0.00251296
0.0211668
0.036246
0.0433533
0.0431885
0.0376245
0.118234
0.147853
0.169727
0.179981
0.17664
0.158077
0.124803
0.0784797
0.0234153
-0.036887
-0.0985458
-0.15766
-0.210612
-0.254345
-0.286558
-0.305834
-0.311665
-0.30444
-0.28537
-0.256363
-0.219863
-0.178662
-0.135667
-0.0936941
-0.0552476
-0.0227275
0.00233401
0.019157
0.0284003
0.0307604
0.0280193
0.130144
0.163092
0.187985
0.200628
0.198891
0.181112
0.147726
0.100556
0.0442308
-0.0175476
-0.080711
-0.141212
-0.195349
-0.240057
-0.273102
-0.293195
-0.299992
-0.294051
-0.276725
-0.250006
-0.216338
-0.178415
-0.13896
-0.100532
-0.0653355
-0.035341
-0.0118477
0.00453292
0.0144158
0.018407
0.0181018
0.114929
0.144224
0.166718
0.178554
0.177922
0.16316
0.13493
0.0947561
0.0466698
-0.00611694
-0.0600852
-0.111758
-0.15798
-0.196172
-0.22449
-0.241913
-0.248233
-0.244003
-0.230428
-0.209217
-0.182421
-0.152247
-0.120886
-0.0903502
-0.0623366
-0.0382731
-0.019133
-0.00536027
0.00353568
0.00799789
0.00931558
0.0812999
0.101966
0.118209
0.126919
0.126947
0.116959
0.0974544
0.069639
0.036263
-0.000433742
-0.0379939
-0.0739983
-0.106256
-0.132988
-0.152936
-0.165413
-0.170299
-0.167996
-0.159347
-0.145531
-0.127942
-0.108066
-0.087356
-0.0671354
-0.0485003
-0.0323238
-0.0192385
-0.00951343
-0.00284892
0.000983953
0.00292882
-0.0436212
-0.0653581
-0.0921417
-0.12332
-0.157458
-0.192362
-0.225433
-0.253501
-0.273652
-0.283076
-0.279579
-0.26187
-0.229741
-0.18415
-0.127173
-0.0618316
0.0081724
0.0787848
0.145959
0.205984
0.255785
0.293137
0.316791
0.326493
0.322917
0.306369
0.279215
0.243889
0.203605
0.161072
0.119248
-0.0733916
-0.106921
-0.14694
-0.191983
-0.240061
-0.288148
-0.332737
-0.369652
-0.395361
-0.406307
-0.399773
-0.374216
-0.329503
-0.267
-0.189508
-0.101045
-0.00649871
0.0887939
0.17951
0.260764
0.328494
0.379749
0.412846
0.427402
0.42425
0.403576
0.368737
0.322998
0.270329
0.214318
0.159
-0.109422
-0.154105
-0.204754
-0.259023
-0.314429
-0.367449
-0.414508
-0.45144
-0.475333
-0.482925
-0.471828
-0.440808
-0.389994
-0.320944
-0.236582
-0.140989
-0.0390891
0.063751
0.162157
0.251141
0.326481
0.385003
0.424752
0.445046
0.446444
0.428714
0.39492
0.348638
0.293886
0.23451
0.175209
-0.147702
-0.201026
-0.257413
-0.313544
-0.366707
-0.413404
-0.451028
-0.476682
-0.489543
-0.487897
-0.470688
-0.437629
-0.389282
-0.327071
-0.253242
-0.170749
-0.0830934
0.00589331
0.0922962
0.172341
0.242628
0.300335
0.343376
0.370504
0.381387
0.374795
0.352525
0.316853
0.271451
0.219628
0.166281
-0.183444
-0.241869
-0.298266
-0.348417
-0.389697
-0.419245
-0.436286
-0.440281
-0.43372
-0.417495
-0.392719
-0.360551
-0.322083
-0.278268
-0.229933
-0.17783
-0.122755
-0.0656415
-0.00765046
0.0497492
0.104771
0.155358
0.199325
0.234529
0.259131
0.270147
0.26716
0.250478
0.222536
0.185598
0.144236
-0.211896
-0.271646
-0.32327
-0.361781
-0.38487
-0.390699
-0.380764
-0.357416
-0.326963
-0.293365
-0.260245
-0.230377
-0.205357
-0.185432
-0.169591
-0.155827
-0.141582
-0.124242
-0.101621
-0.0724168
-0.0365167
0.00487693
0.0493643
0.0936204
0.133877
0.164816
0.183381
0.187531
0.178199
0.156494
0.126649
-0.227757
-0.284679
-0.327653
-0.351052
-0.353059
-0.33305
-0.294781
-0.243455
-0.188974
-0.138229
-0.09721
-0.0701609
-0.0590511
-0.0633239
-0.080064
-0.104474
-0.130657
-0.152489
-0.16451
-0.162751
-0.145317
-0.112682
-0.0675869
-0.0146564
0.0403189
0.0894473
0.127118
0.149057
0.154745
0.144309
0.121806
-0.227967
-0.278468
-0.310512
-0.318137
-0.300096
-0.256959
-0.1943
-0.119614
-0.0455046
0.0188779
0.0657618
0.0898449
0.0889808
0.0644815
0.0208825
-0.0347106
-0.0936753
-0.147057
-0.186785
-0.2068
-0.20386
-0.177963
-0.132252
-0.0725272
-0.00632871
0.0561171
0.107167
0.14082
0.15542
0.150457
0.130004
-0.211701
-0.25289
-0.273055
-0.266316
-0.232017
-0.171752
-0.0922515
-0.00243506
0.0836467
0.155557
0.204555
0.224832
0.21428
0.17482
0.112118
0.034819
-0.0466739
-0.121581
-0.180169
-0.215063
-0.222202
-0.201333
-0.155915
-0.0925687
-0.0200211
0.04986
0.108136
0.147728
0.166241
0.162821
0.141614
-0.179896
-0.20964
-0.217938
-0.199506
-0.15426
-0.0845903
0.00233761
0.0971325
0.185658
0.257243
0.303059
0.317376
0.298347
0.248324
0.173555
0.0833862
-0.0110186
-0.0981246
-0.167517
-0.211287
-0.225029
-0.208376
-0.164902
-0.101544
-0.0275076
0.0446819
0.105537
0.147524
0.167857
0.165482
0.144469
-0.134417
-0.151093
-0.147869
-0.120612
-0.069797
0.00161007
0.0866281
0.176245
0.257472
0.32036
0.356795
0.361676
0.333634
0.275322
0.193116
0.0963407
-0.00395312
-0.0963891
-0.170706
-0.219097
-0.23719
-0.224564
-0.184664
-0.124256
-0.0523479
0.0188787
0.079997
0.12349
0.146411
0.147513
0.130502
-0.0775028
-0.0796751
-0.0650271
-0.0311
0.0210563
0.0880748
0.163582
0.239567
0.305158
0.351868
0.372944
0.364367
0.32547
0.259165
0.171667
0.0717961
-0.0301244
-0.123525
-0.198899
-0.249009
-0.269788
-0.260817
-0.22525
-0.169325
-0.101384
-0.0325089
0.028351
0.0739933
0.101436
0.109198
0.100323
-0.0121529
0.00147362
0.0278568
0.0674144
0.11848
0.177399
0.238623
0.295496
0.339898
0.365282
0.366687
0.34151
0.289979
0.215303
0.123421
0.0223977
-0.078507
-0.169916
-0.243448
-0.292756
-0.314301
-0.307765
-0.275996
-0.224574
-0.160967
-0.0948106
-0.0343327
0.0137598
0.0465215
0.062264
0.0632256
0.0567249
0.0868182
0.125225
0.17022
0.219493
0.269185
0.314627
0.350622
0.372063
0.37454
0.355075
0.312634
0.248451
0.166084
0.0711835
-0.0290188
-0.126459
-0.213123
-0.281954
-0.327695
-0.347523
-0.341382
-0.311927
-0.264151
-0.204668
-0.141742
-0.0827317
-0.0337214
0.00246316
0.0240874
0.0326599
0.121263
0.166877
0.216597
0.266801
0.314586
0.355989
0.387174
0.404315
0.405191
0.387437
0.349967
0.29325
0.219473
0.132516
0.0377295
-0.0584934
-0.149299
-0.228068
-0.289126
-0.328403
-0.343919
-0.336036
-0.307382
-0.262526
-0.207372
-0.149148
-0.0942436
-0.0479968
-0.0129936
0.00925005
0.0197897
0.170845
0.22836
0.286594
0.340635
0.387175
0.422307
0.44295
0.446427
0.432885
0.401634
0.353107
0.288939
0.212006
0.12633
0.0368689
-0.0508408
-0.131121
-0.198686
-0.249185
-0.279704
-0.28912
-0.278269
-0.249854
-0.208153
-0.158488
-0.107435
-0.0603384
-0.0216774
0.00634332
0.022698
0.0283484
0.194325
0.256983
0.318274
0.372871
0.41741
0.448274
0.463059
0.459955
0.440608
0.405407
0.355677
0.293647
0.222402
0.145765
0.0680992
-0.00597257
-0.0718952
-0.125586
-0.163842
-0.184728
-0.187828
-0.17435
-0.147029
-0.109849
-0.0675943
-0.0264307
0.00937884
0.0362773
0.0525539
0.0578371
0.0532928
0.183917
0.242539
0.299258
0.349316
0.389747
0.417498
0.430783
0.428354
0.412292
0.38333
0.342927
0.293189
0.236814
0.176983
0.11721
0.0611274
0.0122456
-0.0263554
-0.052345
-0.0644581
-0.0626852
-0.0483501
-0.0240198
0.00673669
0.0397432
0.069208
0.0919096
0.10518
0.107841
0.100162
0.0836472
0.139269
0.184269
0.228303
0.268022
0.301315
0.325946
0.340685
0.344576
0.339081
0.32458
0.301936
0.272458
0.237897
0.200395
0.162399
0.126521
0.0953552
0.0712303
0.0559394
0.0504519
0.0547385
0.067686
0.0871534
0.110166
0.133252
0.151119
0.161442
0.162294
0.152977
0.134221
0.107825
0.0696823
0.093862
0.119016
0.1437
0.16696
0.187519
0.204632
0.217427
0.225986
0.229844
0.228776
0.222861
0.212569
0.198797
0.182865
0.166439
0.151384
0.139547
0.1325
0.131249
0.136032
0.146202
0.160231
0.175845
0.190307
0.198968
0.200152
0.192442
0.175498
0.150248
0.118627
-0.00708046
-0.00599476
-0.00176451
0.00605908
0.0177087
0.0328423
0.0510973
0.0715828
0.0927589
0.11318
0.131439
0.146349
0.157132
0.163538
0.165921
0.165207
0.162765
0.160191
0.15905
0.160555
0.165337
0.173271
0.183434
0.194192
0.203425
0.207153
0.204054
0.192954
0.173734
0.147292
0.115537
-0.0695967
-0.0877709
-0.1013
-0.108367
-0.107838
-0.0993393
-0.0829604
-0.0595948
-0.032032
-0.00241633
0.0270252
0.0542538
0.0776681
0.0962936
0.109894
0.118969
0.124618
0.128329
0.131698
0.136101
0.142426
0.150876
0.160893
0.171216
0.180077
0.184013
0.181766
0.172186
0.155277
0.131796
0.103553
-0.0995697
-0.127874
-0.151459
-0.168048
-0.176144
-0.175035
-0.164623
-0.145672
-0.121317
-0.093766
-0.0653262
-0.0381249
-0.0138508
0.00643829
0.0224252
0.0345276
0.043754
0.0514904
0.0592254
0.0682312
0.0793024
0.0925602
0.107393
0.122511
0.136144
0.145061
0.147854
0.143278
0.131428
0.112953
0.0896136
-0.088153
-0.114849
-0.138534
-0.157517
-0.170584
-0.177105
-0.176852
-0.170239
-0.159577
-0.146324
-0.131968
-0.117817
-0.104815
-0.0934125
-0.0835046
-0.0744671
-0.0653016
-0.0548338
-0.0419537
-0.0258825
-0.00638144
0.0161073
0.0404535
0.0649313
0.0874411
0.104689
0.115014
0.117067
0.111076
0.097705
0.0788018
-0.0390869
-0.0534174
-0.0680407
-0.0827488
-0.0971622
-0.111102
-0.124208
-0.136311
-0.147826
-0.158727
-0.168885
-0.178015
-0.18563
-0.191036
-0.193349
-0.191576
-0.184749
-0.172083
-0.153141
-0.128012
-0.0974178
-0.0627544
-0.0260162
0.0103609
0.0437554
0.0706407
0.0891168
0.0978098
0.0971473
0.0879442
0.0722772
0.0329093
0.0375703
0.0377336
0.0316077
0.0184314
-0.00228093
-0.0300081
-0.0638189
-0.101589
-0.141384
-0.181013
-0.218183
-0.250641
-0.276307
-0.293398
-0.300549
-0.296913
-0.282253
-0.257017
-0.22238
-0.180226
-0.133068
-0.0838746
-0.0358414
0.00789441
0.0435979
0.0692303
0.0835112
0.0871188
0.0810896
0.0677972
0.105516
0.129678
0.145296
0.14867
0.137933
0.111933
0.0713746
0.0179559
-0.0437134
-0.109858
-0.176325
-0.238944
-0.293835
-0.337689
-0.367972
-0.383075
-0.382369
-0.366227
-0.335979
-0.293834
-0.242732
-0.186149
-0.127833
-0.0715339
-0.0206958
0.0209507
0.0513794
0.0695071
0.0762481
0.0728239
0.0618217
0.158815
0.19742
0.224734
0.235622
0.227454
0.198564
0.149832
0.0835385
0.00606899
-0.077505
-0.161668
-0.240971
-0.310468
-0.366083
-0.404871
-0.425175
-0.426632
-0.410126
-0.377657
-0.332149
-0.277211
-0.216862
-0.155217
-0.0961942
-0.0432211
0.000273314
0.0324253
0.0524008
0.0612603
0.0602801
0.0521017
0.176792
0.220442
0.252209
0.266489
0.26043
0.23236
0.183022
0.114908
0.0349335
-0.0514982
-0.138549
-0.220506
-0.292244
-0.349629
-0.389779
-0.4112
-0.413767
-0.398625
-0.368015
-0.325028
-0.273331
-0.216867
-0.159542
-0.104951
-0.0561305
-0.015911
0.0141372
0.0334345
0.0430336
0.0441008
0.0390567
0.157597
0.196853
0.225918
0.239661
0.235607
0.211963
0.169805
0.111223
0.0422945
-0.0322472
-0.107303
-0.177914
-0.239667
-0.289053
-0.323677
-0.342373
-0.34516
-0.333144
-0.308339
-0.273437
-0.231552
-0.185963
-0.139843
-0.0960527
-0.0569368
-0.0245505
-5.96764e-05
0.0161327
0.0249314
0.0272354
0.025012
0.112781
0.1408
0.16199
0.172318
0.170102
0.153755
0.124128
0.0829767
0.0344768
-0.0180213
-0.0709067
-0.120679
-0.164234
-0.199124
-0.2237
-0.237185
-0.239637
-0.231875
-0.215337
-0.191915
-0.16377
-0.133143
-0.102179
-0.0727781
-0.0464717
-0.0245195
-0.00768733
0.00378926
0.0105286
0.0130649
0.0128103
-0.0298408
-0.0496803
-0.0765258
-0.110045
-0.148729
-0.190101
-0.230692
-0.266435
-0.293063
-0.306735
-0.304431
-0.284353
-0.246184
-0.191193
-0.12216
-0.0431297
0.0409824
0.124858
0.203281
0.2716
0.32613
0.364429
0.385426
0.389399
0.377811
0.351913
0.314975
0.270564
0.222318
0.17338
0.126709
-0.0568074
-0.0883204
-0.128912
-0.177471
-0.231885
-0.288674
-0.343143
-0.390034
-0.424002
-0.440152
-0.434698
-0.405464
-0.352205
-0.276741
-0.182846
-0.0759234
0.0375015
0.150397
0.255885
0.347837
0.421408
0.473395
0.502396
0.508785
0.494503
0.461078
0.413071
0.355308
0.292294
0.228155
0.166921
-0.0947421
-0.138186
-0.190252
-0.248916
-0.311508
-0.373952
-0.431409
-0.478583
-0.51068
-0.523055
-0.512231
-0.476355
-0.415494
-0.331743
-0.229114
-0.113208
0.0092715
0.13113
0.245323
0.345551
0.426774
0.485589
0.520389
0.531359
0.520298
0.488506
0.44033
0.381043
0.315266
0.247455
0.1822
-0.139343
-0.192781
-0.25137
-0.312003
-0.371736
-0.426654
-0.472875
-0.506642
-0.525616
-0.52696
-0.508761
-0.470271
-0.412073
-0.336115
-0.245624
-0.144899
-0.0389942
0.0666774
0.166768
0.256388
0.331463
0.389006
0.427276
0.44582
0.445422
0.426252
0.391195
0.344039
0.289
0.229895
0.1715
-0.183936
-0.24399
-0.303104
-0.35708
-0.403053
-0.437954
-0.459951
-0.468137
-0.464161
-0.448292
-0.42119
-0.383815
-0.337349
-0.283143
-0.222694
-0.157642
-0.0897888
-0.0210883
0.0463808
0.110438
0.168864
0.219499
0.260383
0.289891
0.306905
0.309361
0.297482
0.272665
0.237724
0.195292
0.149834
-0.220309
-0.282716
-0.33696
-0.377914
-0.403066
-0.410654
-0.401416
-0.377895
-0.346317
-0.310574
-0.27427
-0.240228
-0.210152
-0.184471
-0.162411
-0.142251
-0.121756
-0.0986354
-0.0710099
-0.0378385
0.000798134
0.0435907
0.0881253
0.131161
0.169084
0.196761
0.211203
0.210962
0.197145
0.171124
0.137129
-0.240671
-0.300344
-0.345089
-0.369045
-0.37027
-0.348515
-0.307068
-0.251835
-0.193267
-0.138663
-0.0943349
-0.0647436
-0.0519214
-0.0552312
-0.0715387
-0.0957353
-0.121576
-0.142609
-0.153127
-0.149034
-0.128468
-0.092091
-0.0429721
0.0138465
0.0721039
0.123252
0.161187
0.181792
0.18452
0.169741
0.14175
-0.240664
-0.293013
-0.325406
-0.331649
-0.310471
-0.26305
-0.194703
-0.113936
-0.0342566
0.0345219
0.0841327
0.109014
0.107052
0.079876
0.0326006
-0.0269148
-0.0892262
-0.144606
-0.184377
-0.202135
-0.194628
-0.162184
-0.108584
-0.0404966
0.0335409
0.101897
0.156024
0.189811
0.201441
0.190714
0.162257
-0.220285
-0.261825
-0.280816
-0.271228
-0.232467
-0.166859
-0.0809512
0.0152631
0.106809
0.182568
0.23332
0.253059
0.239818
0.195979
0.127966
0.0453736
-0.0403816
-0.117586
-0.175788
-0.207238
-0.207919
-0.178053
-0.121971
-0.047447
0.0354803
0.113048
0.175229
0.214752
0.229023
0.217615
0.185522
-0.182523
-0.211183
-0.217274
-0.195497
-0.145864
-0.0714844
0.0207176
0.120476
0.212989
0.287096
0.333654
0.346858
0.325071
0.271121
0.191977
0.0978547
0.000824784
-0.0867637
-0.153901
-0.19242
-0.198071
-0.171052
-0.115886
-0.0407291
0.0438631
0.123339
0.187184
0.22774
0.242064
0.229643
0.195573
-0.131509
-0.146325
-0.140806
-0.110962
-0.0573289
0.0165642
0.104133
0.195895
0.278643
0.342262
0.378577
0.382545
0.353016
0.292995
0.209343
0.111943
0.0124049
-0.0774173
-0.146954
-0.188349
-0.19749
-0.174523
-0.123749
-0.0529807
0.0276384
0.10414
0.166328
0.206706
0.222274
0.212376
0.181736
-0.070874
-0.0713201
-0.0553342
-0.0207436
0.0314313
0.0975235
0.171756
0.24618
0.31022
0.355611
0.37581
0.366978
0.328608
0.263741
0.17871
0.0824378
-0.0146774
-0.102042
-0.170202
-0.212102
-0.224001
-0.205954
-0.161732
-0.0982752
-0.0246589
0.0467683
0.106656
0.147987
0.167835
0.165271
0.144164
-0.00360733
0.0109186
0.0369905
0.074609
0.122258
0.176302
0.231969
0.283235
0.322774
0.344639
0.344337
0.319536
0.27053
0.200392
0.114775
0.0213522
-0.0710528
-0.153502
-0.218025
-0.258653
-0.272191
-0.258636
-0.22113
-0.165525
-0.0995388
-0.0334186
0.0245958
0.0681299
0.0943569
0.102031
0.0938682
0.0664609
0.0964942
0.132904
0.173433
0.216027
0.257164
0.293064
0.319673
0.33311
0.329888
0.307708
0.265874
0.205588
0.13003
0.0441967
-0.0455033
-0.131886
-0.207765
-0.266783
-0.304197
-0.317498
-0.306751
-0.274572
-0.225799
-0.166835
-0.105899
-0.0500353
-0.00487542
0.0268643
0.0437345
0.0473003
0.132661
0.177706
0.224367
0.268397
0.307207
0.337432
0.356155
0.361066
0.351502
0.326247
0.285042
0.228729
0.159385
0.0803232
-0.00403035
-0.0884214
-0.167187
-0.234801
-0.286462
-0.318672
-0.32969
-0.319799
-0.291287
-0.248206
-0.195868
-0.140907
-0.0891788
-0.0454663
-0.0123397
0.00879873
0.0186427
0.18467
0.241825
0.296901
0.344312
0.381068
0.404034
0.410992
0.400981
0.375886
0.336274
0.283454
0.219428
0.146884
0.0691532
-0.00990019
-0.0860535
-0.154978
-0.212593
-0.255467
-0.281218
-0.28884
-0.278886
-0.253466
-0.216052
-0.171101
-0.124193
-0.080033
-0.0424565
-0.0138189
0.00480175
0.013637
0.210279
0.273273
0.332109
0.380817
0.416324
0.435853
0.437765
0.421955
0.391815
0.348933
0.295445
0.233851
0.166955
0.0977886
0.0295466
-0.0345167
-0.0912065
-0.137608
-0.171348
-0.190884
-0.195729
-0.186593
-0.165388
-0.135076
-0.099384
-0.0632197
-0.0301983
-0.00317106
0.0157923
0.0261084
0.0279138
0.199699
0.259219
0.314413
0.360009
0.393326
0.412127
0.415282
0.403051
0.379045
0.344983
0.302908
0.255007
0.203539
0.150801
0.0991081
0.0507651
0.00803128
-0.0270161
-0.0526637
-0.0677977
-0.0720886
-0.0661159
-0.0514063
-0.0303285
-0.00587796
0.0175769
0.037392
0.0516247
0.0585241
0.0579871
0.0502577
0.150773
0.196422
0.23938
0.276037
0.304605
0.323579
0.332302
0.330974
0.322169
0.306881
0.286199
0.261212
0.233014
0.202744
0.17165
0.141119
0.112685
0.0879353
0.0683474
0.0550543
0.0486468
0.0490184
0.0552758
0.0657873
0.0783363
0.0891398
0.0963296
0.0986603
0.0946779
0.0845791
0.0687364
0.072424
0.0958472
0.119443
0.141838
0.162504
0.18078
0.196442
0.209353
0.220131
0.228461
0.233907
0.235961
0.234183
0.228345
0.218582
0.205474
0.190069
0.173781
0.158207
0.144851
0.134874
0.128875
0.12674
0.127626
0.130066
0.130924
0.128835
0.122947
0.11204
0.0963679
0.0763516
-0.0158996
-0.0178987
-0.0166009
-0.011145
-0.000732066
0.0147931
0.0355655
0.0610199
0.0895368
0.119364
0.148457
0.174701
0.196183
0.21144
0.219685
0.220928
0.215969
0.206274
0.193743
0.180378
0.167958
0.15776
0.150348
0.145513
0.142337
0.138252
0.132084
0.123064
0.110148
0.093466
0.073434
-0.0894082
-0.113158
-0.131361
-0.141524
-0.141828
-0.131499
-0.110151
-0.0786636
-0.0404068
0.00182711
0.0448764
0.0855547
0.121013
0.149058
0.168415
0.178846
0.181111
0.176803
0.16807
0.157232
0.146418
0.137232
0.130531
0.126344
0.123936
0.121023
0.116344
0.108982
0.098059
0.0835623
0.065961
-0.126024
-0.161594
-0.191201
-0.211792
-0.221146
-0.218215
-0.202468
-0.174802
-0.139183
-0.0985942
-0.056355
-0.0157514
0.0203388
0.0497616
0.0713232
0.0848876
0.0912912
0.0921521
0.0895696
0.0857408
0.0825914
0.0814617
0.0829124
0.0866718
0.0917341
0.0956941
0.0970143
0.0945515
0.0876469
0.0762903
0.0611981
-0.114295
-0.148415
-0.178453
-0.202045
-0.217327
-0.223367
-0.219576
-0.206452
-0.187061
-0.163506
-0.138101
-0.113086
-0.0903424
-0.0711677
-0.0561138
-0.0449472
-0.0367587
-0.0301553
-0.0235326
-0.015404
-0.00470136
0.00898981
0.0253227
0.0432097
0.0609818
0.0757471
0.085636
0.0893441
0.0865429
0.0774586
0.0633088
-0.0576726
-0.077879
-0.0979605
-0.117323
-0.135118
-0.150883
-0.163982
-0.174107
-0.182036
-0.188025
-0.192354
-0.195238
-0.196725
-0.196623
-0.194462
-0.189519
-0.180928
-0.167833
-0.149576
-0.125916
-0.0971917
-0.0644248
-0.0292969
0.0059716
0.0388527
0.0658029
0.0846951
0.0942255
0.0945135
0.0862266
0.0712847
0.0269947
0.0285855
0.0251375
0.0148379
-0.00285316
-0.0281393
-0.0603092
-0.097952
-0.138709
-0.180416
-0.220738
-0.257345
-0.288039
-0.310876
-0.32426
-0.327031
-0.31854
-0.298729
-0.268193
-0.228238
-0.180871
-0.128737
-0.0749566
-0.0228965
0.0241209
0.0620128
0.088558
0.102635
0.104879
0.0964799
0.0801082
0.113348
0.137583
0.151756
0.151728
0.135612
0.102536
0.0533288
-0.009478
-0.0804173
-0.154971
-0.228303
-0.29569
-0.352871
-0.396354
-0.423621
-0.433258
-0.424973
-0.399586
-0.35895
-0.305835
-0.243755
-0.176744
-0.109072
-0.0449365
0.0118558
0.0570394
0.0884946
0.105406
0.108886
0.100553
0.0836502
0.177695
0.21899
0.246721
0.255
0.240994
0.203304
0.142899
0.0631693
-0.0281643
-0.124897
-0.220426
-0.30837
-0.383092
-0.440118
-0.476419
-0.490553
-0.482627
-0.454197
-0.408065
-0.348035
-0.278601
-0.204616
-0.130932
-0.0620591
-0.0018506
0.0456924
0.0787159
0.096738
0.101199
0.093919
0.0783939
0.200906
0.248589
0.281826
0.294161
0.282426
0.245206
0.183295
0.100387
0.0049265
-0.0964027
-0.19652
-0.288634
-0.366811
-0.426437
-0.464515
-0.479785
-0.472652
-0.445027
-0.400069
-0.341865
-0.27507
-0.204535
-0.134942
-0.0704847
-0.0145882
0.0294206
0.0600601
0.0771475
0.0821762
0.0768821
0.0645325
0.180207
0.223485
0.254274
0.266583
0.257689
0.225979
0.172639
0.100808
0.0179545
-0.0700234
-0.156895
-0.23672
-0.304352
-0.355849
-0.388721
-0.402026
-0.396282
-0.373304
-0.335951
-0.287818
-0.232906
-0.17529
-0.11881
-0.0668126
-0.0219407
0.0133983
0.0381749
0.0523036
0.0571349
0.0540548
0.0457293
0.129474
0.160496
0.183048
0.192396
0.186708
0.164472
0.126659
0.075817
0.017129
-0.0451984
-0.106721
-0.163219
-0.21105
-0.247456
-0.270728
-0.280263
-0.2765
-0.260785
-0.235188
-0.202265
-0.164822
-0.125674
-0.0874336
-0.0523338
-0.0220956
0.00182361
0.0187547
0.0286767
0.0325808
0.0313544
0.0268728
-0.000500256
-0.0129992
-0.0343357
-0.0646984
-0.102815
-0.146107
-0.190643
-0.231664
-0.263571
-0.28165
-0.282165
-0.262878
-0.223369
-0.165169
-0.0916471
-0.00768607
0.0808361
0.167652
0.246748
0.312951
0.362416
0.392938
0.404053
0.396943
0.374153
0.3384
0.293923
0.244857
0.195085
0.147626
0.104842
-0.0175528
-0.039314
-0.0726955
-0.117258
-0.171178
-0.230642
-0.290393
-0.34431
-0.385172
-0.406886
-0.404703
-0.375864
-0.320022
-0.239394
-0.13861
-0.0242757
0.0957139
0.21298
0.319516
0.408464
0.474762
0.515556
0.53032
0.52073
0.49028
0.442657
0.383729
0.319067
0.25367
0.191517
0.135793
-0.0505925
-0.083187
-0.127247
-0.181443
-0.243453
-0.308687
-0.371816
-0.426516
-0.465862
-0.48386
-0.475964
-0.439692
-0.375038
-0.284602
-0.173422
-0.0485285
0.0817648
0.208685
0.323877
0.420203
0.492398
0.537499
0.554967
0.546554
0.515918
0.466953
0.405599
0.337917
0.26918
0.203624
0.144852
-0.09627
-0.139134
-0.189873
-0.24605
-0.305062
-0.362489
-0.413944
-0.454658
-0.4802