# vtk DataFile Version 2.0
Func
ASCII
DATASET RECTILINEAR_GRID
DIMENSIONS 31 31 31
X_COORDINATES 31 double
-9.67742
-9.03226
-8.3871
-7.74194
-7.09677
-6.45161
-5.80645
-5.16129
-4.51613
-3.87097
-3.22581
-2.58065
-1.93548
-1.29032
-0.645161
0
0.645161
1.29032
1.93548
2.58065
3.22581
3.87097
4.51613
5.16129
5.80645
6.45161
7.09677
7.74194
8.3871
9.03226
9.67742
Y_COORDINATES 31 double
-9.67742
-9.03226
-8.3871
-7.74194
-7.09677
-6.45161
-5.80645
-5.16129
-4.51613
-3.87097
-3.22581
-2.58065
-1.93548
-1.29032
-0.645161
0
0.645161
1.29032
1.93548
2.58065
3.22581
3.87097
4.51613
5.16129
5.80645
6.45161
7.09677
7.74194
8.3871
9.03226
9.67742
Z_COORDINATES 31 double
-9.67742
-9.03226
-8.3871
-7.74194
-7.09677
-6.45161
-5.80645
-5.16129
-4.51613
-3.87097
-3.22581
-2.58065
-1.93548
-1.29032
-0.645161
0
0.645161
1.29032
1.93548
2.58065
3.22581
3.87097
4.51613
5.16129
5.80645
6.45161
7.09677
7.74194
8.3871
9.03226
9.67742
POINT_DATA 29791
SCALARS data double 1
LOOKUP_TABLE default
0.0100156
0.0145465
0.0210356
0.0287583
0.0377619
0.0476347
0.0580551
0.0686864
0.0789554
0.0882757
0.0961098
0.102012
0.105682
0.107007
0.106076
0.10318
0.0987694
0.0933978
0.0876451
0.0820357
0.0769627
0.0726307
0.0690397
0.0659903
0.0631462
0.0598111
0.055548
0.0499788
0.0433053
0.0355422
0.0275129
0.0311489
0.042234
0.0552336
0.0686226
0.0822665
0.095359
0.10747
0.11834
0.127644
0.134912
0.139776
0.141987
0.141475
0.138379
0.133062
0.126099
0.118222
0.110238
0.102922
0.0968988
0.0925452
0.0899145
0.0887274
0.0883996
0.0881529
0.0866224
0.0830104
0.0766676
0.0678384
0.0566216
0.0443261
0.0640497
0.0844286
0.105531
0.124881
0.141914
0.15533
0.164805
0.170363
0.1725
0.171311
0.167042
0.160055
0.150846
0.140046
0.128417
0.116836
0.106235
0.0975091
0.0914044
0.0883912
0.0885588
0.09155
0.0965746
0.102472
0.107877
0.110658
0.109552
0.10371
0.0934749
0.0790994
0.0625232
0.101522
0.131692
0.160412
0.184262
0.202158
0.212423
0.214956
0.210333
0.200332
0.185983
0.168495
0.149129
0.129155
0.109797
0.0922186
0.0774953
0.0665771
0.0602122
0.0588544
0.0625535
0.0708725
0.0828458
0.0970301
0.111603
0.124587
0.133104
0.135507
0.130723
0.11936
0.101892
0.0809921
0.130668
0.167772
0.200882
0.226014
0.241709
0.246141
0.239626
0.223429
0.200669
0.173402
0.143826
0.114065
0.0860654
0.0614922
0.0417069
0.0277549
0.0203657
0.0199137
0.0263677
0.0392155
0.0574149
0.0793802
0.103067
0.126098
0.146022
0.159387
0.164311
0.159671
0.146403
0.125274
0.0996627
0.137555
0.175043
0.206677
0.228553
0.239216
0.23708
0.222972
0.198779
0.168503
0.134899
0.100743
0.068571
0.0405376
0.0183101
0.00306218
-0.00449894
-0.00408277
0.00419452
0.019802
0.0417489
0.0685563
0.098255
0.12848
0.156597
0.179978
0.194875
0.199389
0.192491
0.175502
0.149483
0.118448
0.113807
0.143088
0.166185
0.180018
0.183636
0.176133
0.158822
0.133955
0.105551
0.0764043
0.0491409
0.0259651
0.00854568
-0.00203868
-0.00524977
-0.00100358
0.0104321
0.0284895
0.0523178
0.0807417
0.112221
0.144825
0.176298
0.204161
0.225961
0.237976
0.238491
0.226677
0.204205
0.172362
0.135609
0.0605738
0.0738267
0.0823744
0.0846659
0.0807202
0.0706347
0.0560724
0.0392538
0.0231891
0.00993276
0.00112704
-0.0021524
0.00058279
0.00928503
0.0235095
0.0425722
0.0656903
0.0920537
0.120832
0.151094
0.181717
0.211286
0.238104
0.260227
0.275679
0.281021
0.274826
0.256476
0.227857
0.19034
0.148574
-0.0104099
-0.0174321
-0.02622
-0.03639
-0.0467263
-0.0560253
-0.062515
-0.0644286
-0.0605891
-0.05033
-0.033624
-0.0110799
0.0161822
0.0467238
0.0790285
0.111725
0.143742
0.174358
0.203167
0.229912
0.254301
0.275812
0.293608
0.3065
0.313117
0.310418
0.297229
0.273023
0.239682
0.19847
0.153922
-0.0803065
-0.106446
-0.130804
-0.151117
-0.165088
-0.170601
-0.166065
-0.150502
-0.124919
-0.0903289
-0.0485303
-0.00192077
0.0467874
0.0949017
0.140078
0.180581
0.215417
0.244335
0.267701
0.286233
0.300693
0.311593
0.319006
0.322473
0.321129
0.312279
0.294806
0.268068
0.233669
0.192561
0.148882
-0.129194
-0.167786
-0.201504
-0.226739
-0.240568
-0.240422
-0.225161
-0.194761
-0.152158
-0.0998779
-0.0412488
0.0199511
0.0799072
0.135205
0.183202
0.222292
0.251972
0.272773
0.286029
0.2935
0.296961
0.297809
0.296814
0.293981
0.288661
0.278312
0.2616
0.237526
0.207163
0.170987
0.132527
-0.14276
-0.183371
-0.217362
-0.240663
-0.250398
-0.244143
-0.221409
-0.183068
-0.133214
-0.0753126
-0.0134999
0.0478733
0.104717
0.153673
0.192472
0.220147
0.237026
0.244573
0.245055
0.24109
0.235158
0.229161
0.224151
0.220186
0.216466
0.210361
0.200075
0.184069
0.162718
0.135958
0.106603
-0.117147
-0.148592
-0.173437
-0.18814
-0.190561
-0.178997
-0.153684
-0.116157
-0.0706181
-0.0206819
0.0296315
0.0763594
0.116055
0.146207
0.165525
0.174065
0.173139
0.165072
0.152812
0.139437
0.127652
0.119363
0.115423
0.115542
0.118452
0.121262
0.121597
0.11734
0.10816
0.0934957
0.0754633
-0.0601515
-0.0737673
-0.0823965
-0.0838386
-0.0771979
-0.0618908
-0.0388238
-0.00985892
0.0216778
0.0527961
0.0804332
0.101847
0.114972
0.118723
0.113158
0.0994935
0.0799429
0.0574212
0.035139
0.0161305
0.00280626
-0.00340702
-0.00224455
0.00537659
0.0175761
0.0311729
0.0432906
0.0513772
0.0545464
0.0519046
0.0449999
0.0115562
0.0195102
0.0299059
0.0431746
0.0587811
0.0760552
0.0935783
0.109482
0.121953
0.129148
0.129493
0.121946
0.106198
0.0828093
0.0532366
0.0197293
-0.0148798
-0.0474871
-0.0750889
-0.0951731
-0.10606
-0.107143
-0.0989619
-0.0831356
-0.0620976
-0.0391942
-0.0175405
0.000170471
0.0127823
0.0193087
0.0209388
0.0781983
0.105794
0.133247
0.159252
0.181995
0.199689
0.210595
0.213061
0.206904
0.191582
0.167121
0.134219
0.0942798
0.0493737
0.00211778
-0.0445223
-0.0874748
-0.123856
-0.151269
-0.168072
-0.17358
-0.168157
-0.153167
-0.130828
-0.103909
-0.0756992
-0.0491954
-0.026871
-0.00980874
0.00117488
0.00714818
0.123482
0.164242
0.20303
0.237222
0.264127
0.281155
0.286417
0.278535
0.258587
0.227123
0.185494
0.135812
0.0808279
0.0237375
-0.0320654
-0.0832697
-0.126908
-0.160613
-0.182831
-0.192951
-0.191351
-0.179342
-0.159002
-0.132945
-0.104019
-0.0752378
-0.0491489
-0.0276907
-0.0115597
-0.00117911
0.00461897
0.139626
0.185028
0.227819
0.264674
0.292509
0.308305
0.310099
0.2967
0.26976
0.230483
0.181043
0.124444
0.064287
0.00444829
-0.0512702
-0.0994924
-0.137549
-0.163705
-0.17728
-0.178668
-0.169227
-0.15109
-0.12689
-0.0994661
-0.0715508
-0.0457675
-0.0240252
-0.00754472
0.00357006
0.00943035
0.0114635
0.129011
0.171394
0.211687
0.246461
0.272635
0.287063
0.287693
0.273333
0.245485
0.205517
0.155906
0.100048
0.0419544
-0.0141558
-0.0642977
-0.105138
-0.134311
-0.150637
-0.154183
-0.146182
-0.128812
-0.104883
-0.0774681
-0.0495484
-0.0236966
-0.00217355
0.0137591
0.0236092
0.0279316
0.0274152
0.0238192
0.101967
0.136733
0.170657
0.200609
0.223719
0.236878
0.23787
0.225299
0.200012
0.163184
0.117227
0.0656086
0.0125018
-0.0376869
-0.0808365
-0.113603
-0.133792
-0.140591
-0.134599
-0.117688
-0.0926886
-0.062976
-0.0320189
-0.00296514
0.0216933
0.0399215
0.0509713
0.0549554
0.0530271
0.0464124
0.0371771
0.071727
0.0980347
0.124837
0.149457
0.169236
0.181146
0.182737
0.172299
0.149886
0.116352
0.0739314
0.0260722
-0.0229408
-0.0685093
-0.106317
-0.132899
-0.146078
-0.145229
-0.131306
-0.106653
-0.0746291
-0.0391093
-0.0039534
0.0274664
0.0526236
0.0695709
0.0779045
0.0781735
0.0719922
0.0610346
0.047555
0.0487502
0.0685597
0.0896912
0.109874
0.126549
0.136759
0.137843
0.127826
0.1062
0.0736225
0.0322606
-0.0143718
-0.0618136
-0.105232
-0.140083
-0.162753
-0.171048
-0.164484
-0.144305
-0.113263
-0.0751741
-0.0343516
0.0049917
0.03927
0.0658967
0.0830002
0.0904403
0.0890914
0.0808796
0.0678219
0.0521788
0.036806
0.0528366
0.0701493
0.0867564
0.100104
0.107345
0.105773
0.0933803
0.0695744
0.0351106
-0.00768464
-0.0550894
-0.102426
-0.144679
-0.177207
-0.196417
-0.200276
-0.18859
-0.162995
-0.126678
-0.0838712
-0.0392239
0.00284571
0.0387048
0.0658667
0.0827349
0.0895228
0.0874482
0.0786366
0.0653504
0.0496428
0.0325045
0.046175
0.0601972
0.0727919
0.0814443
0.0835682
0.0767275
0.0592486
0.0309784
-0.00689953
-0.051686
-0.0993879
-0.145204
-0.184174
-0.211898
-0.225196
-0.222583
-0.204479
-0.173127
-0.132236
-0.0864014
-0.040422
0.00135978
0.0356037
0.0602747
0.0744542
0.0789647
0.0755059
0.0663488
0.0539136
0.0398465
0.0282768
0.0386585
0.0478478
0.0543158
0.0557855
0.0501921
0.0357524
0.0115344
-0.0217963
-0.0623912
-0.107094
-0.151731
-0.19164
-0.222317
-0.240098
-0.242742
-0.229789
-0.202655
-0.164429
-0.119403
-0.0724265
-0.0281879
0.00942207
0.0377935
0.0557917
0.0636618
0.0631462
0.0566258
0.0464954
0.0352473
0.0239797
0.0170654
0.0213197
0.0226611
0.0199574
0.0114707
-0.0040532
-0.0274012
-0.0584459
-0.0955817
-0.136235
-0.17688
-0.213398
-0.241632
-0.257997
-0.260065
-0.247007
-0.219796
-0.181124
-0.135055
-0.086443
-0.0402133
-0.000649701
0.0291796
0.0477951
0.0553501
0.0536364
0.0455477
0.0342858
0.0223494
0.0122144
0.00435282
-0.00272473
-0.00737429
-0.0163224
-0.0301743
-0.0498686
-0.0756708
-0.107226
-0.143264
-0.181413
-0.21854
-0.250997
-0.275041
-0.287365
-0.285638
-0.268953
-0.238099
-0.19557
-0.145317
-0.0922555
-0.0415909
0.0019264
0.0346813
0.0546637
0.0617063
0.0573653
0.045015
0.0286608
0.0122558
-0.00166876
-0.0107718
-0.0150908
-0.0269258
-0.0412836
-0.0607087
-0.0851889
-0.114777
-0.148765
-0.185778
-0.223594
-0.25944
-0.289953
-0.311691
-0.321563
-0.317309
-0.297938
-0.264017
-0.21777
-0.162926
-0.10433
-0.0473596
0.00279087
0.0418261
0.0669575
0.0772519
0.0737289
0.0591046
0.0379533
0.0150285
-0.00526495
-0.0205023
-0.0285849
-0.0300261
-0.0459327
-0.0671205
-0.0933032
-0.12398
-0.158477
-0.195474
-0.232919
-0.268132
-0.298421
-0.320634
-0.331862
-0.329835
-0.313314
-0.282395
-0.23867
-0.185184
-0.126186
-0.0666815
-0.0118436
0.0336544
0.0662658
0.0840612
0.0869556
0.0766965
0.0565353
0.0314231
0.0061808
-0.0149453
-0.0298105
-0.0367008
-0.0365235
-0.0515001
-0.0740134
-0.100728
-0.13088
-0.16348
-0.196919
-0.229209
-0.257756
-0.280339
-0.29441
-0.297812
-0.289097
-0.267801
-0.234635
-0.191539
-0.141571
-0.0886376
-0.0370845
0.00880655
0.0453547
0.0699589
0.0814518
0.080221
0.0681437
0.048257
0.0249376
0.00224335
-0.0161476
-0.0286689
-0.0340421
-0.0333576
-0.0429632
-0.0612027
-0.082438
-0.105862
-0.130595
-0.155228
-0.178186
-0.197567
-0.211826
-0.219247
-0.218494
-0.208802
-0.190159
-0.163384
-0.130134
-0.0927789
-0.0541892
-0.0174346
0.0145638
0.0393892
0.055435
0.0621138
0.0599068
0.0502928
0.0354891
0.0185421
0.00232344
-0.0106866
-0.0194994
-0.0231669
-0.0229049
0.0144397
0.0214778
0.0311007
0.0427299
0.0562709
0.0710187
0.086469
0.101987
0.116598
0.129329
0.139295
0.145792
0.148387
0.146988
0.141869
0.133663
0.123284
0.111819
0.100389
0.0899929
0.0813778
0.0749279
0.0706327
0.0680998
0.0666519
0.0650379
0.062411
0.0579509
0.051673
0.0435372
0.0343195
0.0458732
0.0627203
0.0820285
0.102145
0.122639
0.142238
0.160228
0.176013
0.188952
0.198202
0.203087
0.203172
0.198362
0.188961
0.1757
0.15971
0.142418
0.125396
0.110164
0.0979769
0.089636
0.0853567
0.084735
0.0867932
0.0901488
0.0924839
0.0923817
0.0885245
0.0808232
0.0692857
0.0552463
0.095585
0.126543
0.158197
0.187498
0.213346
0.233816
0.248282
0.256413
0.258803
0.25539
0.246363
0.232152
0.213488
0.191412
0.167285
0.142749
0.119616
0.099695
0.0845785
0.075398
0.0726259
0.0759389
0.0842146
0.0956251
0.107888
0.11749
0.122298
0.120606
0.112313
0.0976044
0.078557
0.153096
0.199182
0.242808
0.279426
0.307161
0.323679
0.328543
0.322089
0.306851
0.284101
0.255405
0.222486
0.18719
0.151436
0.117204
0.0864773
0.0611723
0.0429754
0.0331523
0.03232
0.0402693
0.0558549
0.0770369
0.101026
0.124615
0.14314
0.153879
0.15472
0.145818
0.127655
0.103202
0.199268
0.25646
0.307534
0.34688
0.37208
0.3807
0.3728
0.349614
0.315734
0.273919
0.227172
0.178471
0.130642
0.0862572
0.0476036
0.0166594
-0.00492998
-0.0159548
-0.01578
-0.00452987
0.0167749
0.0461408
0.0806849
0.116817
0.150621
0.176533
0.191485
0.19323
0.182285
0.15953
0.128833
0.213246
0.272044
0.322026
0.35744
0.375883
0.375325
0.356498
0.321529
0.276395
0.224895
0.170899
0.117995
0.0693249
0.02747
-0.0055421
-0.0282082
-0.0394924
-0.0388595
-0.0263536
-0.00274454
0.0303596
0.0704457
0.114186
0.157622
0.196562
0.224955
0.239708
0.238675
0.222825
0.193459
0.155257
0.182293
0.230076
0.268501
0.292795
0.301307
0.292924
0.269109
0.232619
0.189532
0.14377
0.0990318
0.0584617
0.0245173
-0.00106531
-0.0171832
-0.0232422
-0.0190197
-0.00463283
0.0194195
0.052114
0.0917703
0.135945
0.181479
0.224633
0.26146
0.285902
0.29514
0.287301
0.263792
0.226234
0.179909
0.107472
0.132595
0.150379
0.158158
0.155694
0.143162
0.122642
0.097048
0.071036
0.047527
0.0288603
0.0165878
0.0114786
0.013635
0.0227158
0.0381731
0.0594515
0.0860531
0.117485
0.153062
0.191699
0.231697
0.270702
0.30575
0.333576
0.348505
0.34815
0.330944
0.298572
0.252781
0.199125
0.00533934
0.00121385
-0.00613658
-0.0165743
-0.028588
-0.0406329
-0.0502947
-0.0550446
-0.0528966
-0.042863
-0.0248852
0.000182945
0.0307901
0.0650018
0.10088
0.136826
0.171801
0.205377
0.237621
0.268783
0.298952
0.327709
0.353938
0.375773
0.390834
0.39402
0.38333
0.357361
0.317801
0.266257
0.208168
-0.0971972
-0.129459
-0.159918
-0.185623
-0.203462
-0.210787
-0.205237
-0.185157
-0.151772
-0.106467
-0.0517918
0.00881837
0.0714869
0.132411
0.188377
0.23717
0.27777
0.310336
0.335975
0.356284
0.372842
0.386702
0.398075
0.406169
0.409371
0.403111
0.385509
0.355048
0.313082
0.260797
0.20315
-0.17154
-0.222963
-0.26813
-0.301999
-0.320485
-0.32039
-0.299829
-0.25831
-0.199924
-0.128215
-0.0479466
0.0354184
0.116349
0.189905
0.252331
0.301471
0.336892
0.359764
0.37249
0.378101
0.379591
0.379282
0.37841
0.376897
0.373515
0.363987
0.346176
0.318127
0.280554
0.234007
0.182675
-0.196989
-0.253185
-0.300509
-0.333104
-0.346835
-0.338663
-0.307518
-0.254097
-0.184235
-0.102841
-0.0158845
0.0702734
0.149605
0.217127
0.269476
0.305268
0.325116
0.331393
0.327734
0.318317
0.307104
0.297142
0.290103
0.286062
0.283672
0.278652
0.26827
0.249898
0.223428
0.188689
0.148965
-0.167609
-0.213017
-0.249395
-0.271507
-0.276134
-0.261057
-0.226193
-0.173216
-0.108167
-0.0362052
0.0368
0.104952
0.163027
0.207118
0.235115
0.24694
0.24445
0.231106
0.211386
0.190029
0.17127
0.15815
0.152102
0.152787
0.158312
0.164183
0.166927
0.163215
0.152131
0.132861
0.107813
-0.0939134
-0.116366
-0.131876
-0.137022
-0.130217
-0.110514
-0.0788019
-0.037348
0.00904509
0.0560661
0.0991498
0.134058
0.157435
0.167287
0.163291
0.146872
0.121015
0.0898627
0.0581239
0.0303664
0.0103297
0.000352356
0.00106359
0.0113187
0.0284823
0.0478311
0.0652866
0.0770388
0.0815943
0.0777336
0.067168
0.001098
0.00703875
0.0164969
0.030459
0.0485894
0.0704086
0.0942373
0.117622
0.137926
0.152435
0.158662
0.154734
0.139723
0.113896
0.0788149
0.0372491
-0.00708044
-0.0499184
-0.0870006
-0.114632
-0.130203
-0.132585
-0.122275
-0.101337
-0.0730676
-0.0422308
-0.0131201
0.0104048
0.0266639
0.0343756
0.0348408
0.0900364
0.122058
0.154082
0.184722
0.211888
0.233798
0.248247
0.252901
0.247451
0.231006
0.203334
0.165017
0.117536
0.0632716
0.00538111
-0.0524322
-0.10622
-0.152176
-0.187041
-0.208493
-0.215445
-0.208204
-0.188448
-0.159034
-0.123624
-0.0867214
-0.0523153
-0.0238024
-0.00259447
0.0103325
0.0161966
0.150344
0.199932
0.247051
0.288568
0.321139
0.341986
0.348615
0.338927
0.314372
0.275587
0.224219
0.162875
0.0949768
0.0245266
-0.0442066
-0.107053
-0.160272
-0.200888
-0.226957
-0.237748
-0.233796
-0.216833
-0.189575
-0.155423
-0.118063
-0.081462
-0.0488432
-0.0227017
-0.0037841
0.00754757
0.0127311
0.171289
0.22717
0.279795
0.325193
0.359378
0.378926
0.381173
0.364163
0.330072
0.280432
0.218059
0.146875
0.0715807
-0.00277186
-0.0712591
-0.129571
-0.174386
-0.203661
-0.216774
-0.214518
-0.198926
-0.172989
-0.140264
-0.104478
-0.0691158
-0.037491
-0.0118121
0.0065602
0.0177886
0.0223128
0.0220109
0.15625
0.208362
0.258113
0.301528
0.334493
0.353204
0.354797
0.337216
0.302276
0.251686
0.188693
0.117837
0.0445126
-0.0256073
-0.0872001
-0.135898
-0.168733
-0.184422
-0.183428
-0.167803
-0.140834
-0.106562
-0.0692465
-0.0328614
-0.000668999
0.0245729
0.0416468
0.0503085
0.051679
0.0470473
0.0388325
0.119622
0.162108
0.204217
0.242497
0.272965
0.291579
0.295138
0.281203
0.250464
0.204278
0.145793
0.0797166
0.0118045
-0.0518294
-0.105481
-0.14459
-0.16629
-0.169729
-0.1561
-0.128386
-0.0908635
-0.0484674
-0.00610824
0.0319313
0.0624575
0.0830201
0.0931601
0.0935377
0.0861101
0.0729433
0.0569617
0.0797885
0.111902
0.145815
0.178717
0.206766
0.225727
0.231919
0.222344
0.196361
0.154778
0.100473
0.0381873
-0.0260248
-0.0855875
-0.134303
-0.167223
-0.181322
-0.175883
-0.152524
-0.11489
-0.0680491
-0.0177169
0.0305487
0.072057
0.103492
0.12248
0.129039
0.124458
0.111314
0.092303
0.0706847
0.0512004
0.0759484
0.10399
0.132975
0.159067
0.177884
0.185253
0.177655
0.153479
0.113156
0.0594417
-0.00277113
-0.0670499
-0.126299
-0.173781
-0.204114
-0.21405
-0.202913
-0.172636
-0.1274
-0.0729333
-0.0156276
0.0383813
0.0840129
0.117787
0.137377
0.143135
0.136792
0.121316
0.099867
0.075762
0.0388974
0.0601893
0.0850273
0.111243
0.134909
0.151641
0.156988
0.147225
0.120508
0.0773222
0.0206269
-0.0443428
-0.110737
-0.17104
-0.218185
-0.24662
-0.253139
-0.237329
-0.201567
-0.150589
-0.0907035
-0.0287989
0.0286483
0.0764281
0.111137
0.130805
0.136223
0.129565
0.114032
0.0930816
0.0697511
0.0378243
0.0576075
0.0798492
0.102401
0.121331
0.13254
0.131761
0.115606
0.0828191
0.0344328
-0.0260705
-0.093033
-0.159347
-0.217452
-0.260482
-0.28332
-0.283389
-0.261022
-0.219358
-0.163805
-0.101141
-0.0384586
0.0178665
0.0630158
0.0941942
0.11041
0.113247
0.105495
0.0905227
0.0719326
0.0521475
0.036958
0.0537558
0.0709208
0.0863916
0.096534
0.097949
0.087156
0.0617397
0.0216396
-0.0311827
-0.0925844
-0.156619
-0.21632
-0.264708
-0.295875
-0.305948
-0.293716
-0.26084
-0.211577
-0.152094
-0.0894711
-0.0305932
0.0188396
0.0550684
0.0765843
0.0841231
0.0804999
0.0693908
0.0543132
0.0388753
0.0246199
0.0259303
0.0354679
0.0428747
0.046446
0.0432836
0.0311004
0.00777929
-0.0275825
-0.073626
-0.127331
-0.183996
-0.237726
-0.28225
-0.311867
-0.322405
-0.311976
-0.281368
-0.234013
-0.175501
-0.112728
-0.0528079
-0.00197554
0.0353092
0.0569545
0.0633235
0.0574712
0.0437757
0.0269864
0.0107572
-0.00143499
-0.00908647
0.00192551
-0.000115952
-0.0064747
-0.0182071
-0.0370982
-0.0640825
-0.0996055
-0.142844
-0.191231
-0.240881
-0.286875
-0.323824
-0.346669
-0.351518
-0.336395
-0.301743
-0.250537
-0.187995
-0.120891
-0.0565653
-0.00180626
0.0381882
0.0605502
0.0651309
0.054344
0.0336218
0.00885144
-0.0142424
-0.0319632
-0.0411239
-0.0421324
-0.0298005
-0.0451712
-0.0662741
-0.0933157
-0.126823
-0.166388
-0.210869
-0.257903
-0.304211
-0.345478
-0.377007
-0.394319
-0.393876
-0.373753
-0.33416
-0.277674
-0.209104
-0.134989
-0.0627719
0.000246398
0.0479832
0.0764946
0.0845311
0.0737137
0.0481684
0.0151416
-0.0184612
-0.0463378
-0.0649431
-0.071507
-0.0672518
-0.0558509
-0.0811199
-0.112381
-0.149115
-0.190797
-0.236156
-0.282894
-0.327771
-0.367472
-0.397859
-0.414926
-0.415355
-0.397098
-0.359879
-0.305485
-0.237788
-0.162449
-0.086313
-0.0165754
0.0402053
0.0790431
0.0972687
0.0948984
0.0746407
0.0414215
0.00305762
-0.0334729
-0.0621684
-0.0798506
-0.0843274
-0.0773445
-0.0650383
-0.0931303
-0.12647
-0.164114
-0.204998
-0.247356
-0.288774
-0.325909
-0.355954
-0.375496
-0.381531
-0.371907
-0.345743
-0.303752
-0.248365
-0.18363
-0.114865
-0.0480927
0.0106831
0.056275
0.0850322
0.0953823
0.0880337
0.0658967
0.0335999
-0.00191307
-0.0347644
-0.0596765
-0.0743502
-0.077187
-0.070091
-0.0555769
-0.0789672
-0.106234
-0.136355
-0.168269
-0.200305
-0.230456
-0.256208
-0.275541
-0.286111
-0.286016
-0.27409
-0.250162
-0.215218
-0.171434
-0.122035
-0.0710094
-0.0226841
0.0187856
0.0499528
0.0685462
0.0737984
0.0665343
0.0490735
0.0248471
-0.00125903
-0.0249793
-0.0426764
-0.0529512
-0.0546494
-0.0496643
0.0118268
0.0192575
0.0299412
0.0435682
0.0600123
0.0783998
0.0979565
0.117686
0.136049
0.151592
0.16299
0.169206
0.169632
0.164188
0.153371
0.138222
0.120216
0.101088
0.0826195
0.0664095
0.05366
0.0450206
0.0405252
0.0396104
0.0412423
0.0436832
0.0454867
0.0454252
0.0430777
0.0381284
0.0312066
0.0497893
0.0692195
0.0918277
0.116039
0.141296
0.166029
0.189083
0.209445
0.225872
0.236963
0.241557
0.238882
0.228716
0.211487
0.188318
0.160979
0.131731
0.103087
0.0775069
0.0570762
0.0432117
0.0364533
0.0363951
0.0417399
0.0505171
0.0596265
0.0667088
0.0698453
0.0682845
0.061634
0.0510604
0.113106
0.150634
0.189218
0.225542
0.258164
0.284729
0.304041
0.315347
0.318876
0.314113
0.300896
0.279476
0.250629
0.215715
0.1767
0.136089
0.0967608
0.0616864
0.0335926
0.014582
0.00580807
0.00725171
0.0176747
0.0347324
0.055292
0.0747346
0.0896461
0.0975364
0.0974567
0.0891138
0.0744197
0.189102
0.24675
0.301562
0.348276
0.384384
0.407069
0.415158
0.408704
0.390364
0.361244
0.322855
0.277029
0.225929
0.172031
0.118119
0.0672143
0.0224363
-0.0132572
-0.0373954
-0.0483676
-0.0457376
-0.0304453
-0.00480895
0.0276478
0.0626113
0.094001
0.117527
0.130166
0.131083
0.12024
0.100519
0.253127
0.326408
0.392302
0.444011
0.478244
0.492078
0.484799
0.457575
0.415728
0.362217
0.300359
0.233563
0.165231
0.0986816
0.037131
-0.0163483
-0.0588902
-0.0880328
-0.101981
-0.0999383
-0.0823777
-0.0512158
-0.00977062
0.0374519
0.085236
0.126358
0.155978
0.170886
0.170538
0.155306
0.129069
0.277966
0.355264
0.421691
0.470026
0.496897
0.49985
0.478958
0.436517
0.379741
0.312947
0.240597
0.166921
0.0957591
0.0304879
-0.0259622
-0.071068
-0.102674
-0.119101
-0.119336
-0.103319
-0.0721974
-0.0284863
0.0239685
0.0802044
0.134636
0.179408
0.20955
0.221966
0.21655
0.19413
0.159513
0.246567
0.312067
0.365736
0.401341
0.416377
0.409448
0.381629
0.336036
0.280227
0.218796
0.156107
0.0959372
0.0413504
-0.00528328
-0.0421567
-0.0678672
-0.0812665
-0.0814832
-0.068064
-0.0412559
-0.00228563
0.0464233
0.101232
0.157437
0.209731
0.25022
0.274206
0.278932
0.26475
0.232858
0.188769
0.159019
0.197799
0.226863
0.242435
0.243744
0.230865
0.205887
0.172161
0.135704
0.100022
0.0679306
0.0413355
0.0212783
0.00813161
0.00190834
0.00256668
0.0102476
0.0253035
0.0481498
0.0789231
0.117101
0.161161
0.208442
0.255181
0.296895
0.326137
0.338711
0.332249
0.307416
0.265563
0.212552
0.035019
0.0381989
0.0363581
0.0291299
0.0179538
0.00446788
-0.0084737
-0.0179549
-0.021075
-0.0165727
-0.00433364
0.0146512
0.0385895
0.0653231
0.092841
0.119725
0.145425
0.170289
0.195335
0.221783
0.25051
0.281534
0.313705
0.344608
0.370855
0.385695
0.385425
0.367905
0.333833
0.284419
0.225444
-0.092749
-0.124724
-0.155812
-0.182855
-0.202331
-0.211323
-0.206668
-0.18648
-0.151708
-0.103906
-0.0461107
0.0175268
0.0823226
0.143742
0.198093
0.243066
0.277994
0.30381
0.322695
0.337433
0.350673
0.364213
0.378532
0.392559
0.40389
0.40644
0.396741
0.372553
0.334261
0.282622
0.222923
-0.189287
-0.246423
-0.297305
-0.336058
-0.357797
-0.358922
-0.336537
-0.290117
-0.224116
-0.142696
-0.0516094
0.0424501
0.13267
0.212979
0.278849
0.327857
0.359869
0.376885
0.382532
0.381243
0.37734
0.37416
0.373457
0.375098
0.377238
0.374207
0.362373
0.339028
0.303934
0.257163
0.203193
-0.229023
-0.294713
-0.350843
-0.390327
-0.408027
-0.400401
-0.365358
-0.303729
-0.222168
-0.126517
-0.0240665
0.0772808
0.169949
0.247618
0.30602
0.343447
0.360817
0.361392
0.350134
0.332754
0.314689
0.30015
0.291474
0.288809
0.290301
0.29038
0.284909
0.270449
0.24598
0.210813
0.168465
-0.204116
-0.260189
-0.306232
-0.335691
-0.344336
-0.329379
-0.28989
-0.22774
-0.149961
-0.0627463
0.0266417
0.110724
0.18272
0.237402
0.271784
0.285488
0.280696
0.261757
0.23446
0.205055
0.179223
0.161161
0.152976
0.154434
0.163195
0.173584
0.180838
0.180789
0.171696
0.152226
0.12497
-0.126402
-0.158503
-0.182742
-0.194551
-0.191495
-0.172011
-0.136435
-0.087176
-0.0299097
0.030144
0.087211
0.13569
0.170891
0.1897
0.191058
0.176157
0.148276
0.112337
0.074184
0.0396821
0.0138104
-0.000114623
-0.000901629
0.0103765
0.0306804
0.0542645
0.0759381
0.091106
0.0976086
0.0937673
0.0814544
-0.0225988
-0.0240758
-0.021452
-0.0129223
0.00177817
0.0228076
0.0487051
0.077024
0.10456
0.127979
0.143948
0.149625
0.143122
0.123894
0.0929625
0.0529109
0.0076574
-0.0379971
-0.0789857
-0.110695
-0.129643
-0.134023
-0.12396
-0.101507
-0.0702909
-0.0358651
-0.00336598
0.0227351
0.0403286
0.0478067
0.0466457
0.0753498
0.102289
0.129442
0.15591
0.179941
0.200379
0.214929
0.221432
0.219347
0.207496
0.185222
0.152592
0.110551
0.0610048
0.00676663
-0.048624
-0.101181
-0.146872
-0.18207
-0.20402
-0.21122
-0.203666
-0.182886
-0.151776
-0.114211
-0.0751745
-0.0391449
-0.00983501
0.0112126
0.0228937
0.0266574
0.141172
0.187277
0.230946
0.269313
0.299161
0.318261
0.32378
0.31389
0.290005
0.252739
0.203668
0.145287
0.0808708
0.0142671
-0.0504122
-0.109144
-0.158314
-0.19505
-0.217492
-0.224975
-0.218097
-0.198656
-0.169441
-0.133926
-0.0958669
-0.0593658
-0.0277424
-0.0034299
0.0130209
0.0213586
0.023347
0.162482
0.215434
0.265337
0.308428
0.340698
0.359109
0.360456
0.342996
0.308818
0.259534
0.198097
0.128603
0.0559249
-0.014745
-0.0784368
-0.130917
-0.169082
-0.191238
-0.197219
-0.188321
-0.167071
-0.136877
-0.101584
-0.0650429
-0.0306801
-0.00164522
0.0201218
0.0337158
0.0398023
0.0391791
0.0341776
0.143448
0.19241
0.239776
0.281859
0.314403
0.33374
0.336258
0.319861
0.285964
0.236268
0.174195
0.104628
0.0333922
-0.0334051
-0.0901268
-0.132298
-0.157115
-0.163736
-0.153302
-0.128682
-0.0940049
-0.0540454
-0.0135788
0.0232012
0.0531352
0.0738129
0.0845513
0.0858975
0.0797193
0.0678884
0.0534239
0.101131
0.140141
0.180389
0.218835
0.251237
0.273349
0.280968
0.271184
0.243787
0.199879
0.142698
0.0773819
0.0103543
-0.051505
-0.101811
-0.135568
-0.149844
-0.144138
-0.12037
-0.0825191
-0.0359617
0.0133503
0.0597368
0.0985184
0.126532
0.141703
0.144234
0.1358
0.11926
0.0974406
0.0740093
0.0572137
0.0861567
0.119462
0.154811
0.187934
0.214011
0.228036
0.226001
0.205808
0.167699
0.114507
0.0514716
-0.014436
-0.0754863
-0.124344
-0.155175
-0.164517
-0.15176
-0.119165
-0.0714327
-0.0149137
0.0434026
0.0969141
0.140288
0.170062
0.184128
0.183164
0.169579
0.146905
0.118721
0.0891374
0.0286376
0.0515969
0.0812348
0.115658
0.150376
0.180057
0.198829
0.201632
0.18494
0.148337
0.0944351
0.028716
-0.041193
-0.10663
-0.159235
-0.192247
-0.201561
-0.186306
-0.1489
-0.0945778
-0.0304755
0.0355257
0.0959861
0.144926
0.178499
0.194495
0.193849
0.179415
0.155105
0.125014
0.0933429
0.0210704
0.0429515
0.072266
0.107147
0.142758
0.173475
0.192806
0.195065
0.176258
0.135863
0.0766825
0.00467529
-0.0718435
-0.143424
-0.200958
-0.23711
-0.247469
-0.231176
-0.190959
-0.132593
-0.0638724
0.00667702
0.0710955
0.123095
0.158755
0.176145
0.176589
0.163344
0.140496
0.112428
0.0829768
0.028018
0.0511621
0.0807269
0.114638
0.14783
0.1748
0.189029
0.184953
0.159204
0.111812
0.0461851
-0.0311371
-0.111375
-0.1848
-0.242268
-0.276677
-0.284089
-0.264292
-0.220739
-0.15988
-0.0900156
-0.0199144
0.0425342
0.0914256
0.123461
0.137816
0.136652
0.123814
0.103486
0.0801265
0.0567321
0.0356601
0.0581037
0.084522
0.11271
0.137776
0.154903
0.158358
0.143589
0.108707
0.0548313
-0.0138101
-0.0902613
-0.165803
-0.231254
-0.27846
-0.301634
-0.298305
-0.269697
-0.220467
-0.157864
-0.0904641
-0.0267347
0.0262732
0.0639272
0.0844495
0.0891289
0.0815428
0.0664308
0.048072
0.030802
0.0163763
0.0307511
0.0469595
0.0639586
0.079766
0.0902484
0.0918258
0.0803796
0.053142
0.0100835
-0.0463427
-0.111172
-0.177443
-0.237211
-0.282779
-0.308023
-0.309494
-0.287069
-0.244033
-0.18657
-0.122713
-0.0609832
-0.00896319
0.0278837
0.047011
0.0489487
0.0379126
0.019342
-0.00089964
-0.0184324
-0.0292322
-0.0330325
0.00893974
0.0130784
0.0149666
0.0132563
0.0050981
-0.0115085
-0.0385554
-0.076655
-0.124141
-0.177392
-0.23108
-0.278796
-0.314042
-0.331324
-0.327215
-0.301129
-0.255622
-0.196149
-0.130297
-0.066576
-0.0130131
0.0241808
0.0415925
0.0391424
0.0199289
-0.00879083
-0.039756
-0.0660797
-0.0833746
-0.088115
-0.0813956
-0.0244092
-0.0353639
-0.0508309
-0.0712234
-0.0978586
-0.131114
-0.170836
-0.215604
-0.262604
-0.30751
-0.345143
-0.370146
-0.377879
-0.365312
-0.331789
-0.279448
-0.213187
-0.140149
-0.0687681
-0.00748615
0.0365958
0.0588929
0.0580803
0.0363477
-0.00102815
-0.0444399
-0.0853788
-0.116363
-0.133216
-0.133028
-0.11807
-0.0540058
-0.0770748
-0.105586
-0.139126
-0.177645
-0.220387
-0.265513
-0.310288
-0.351541
-0.38495
-0.406039
-0.410816
-0.396503
-0.362198
-0.309341
-0.241844
-0.165827
-0.0889553
-0.0194557
0.0350975
0.0689545
0.0791374
0.0659388
0.0329514
-0.0135088
-0.0630751
-0.107133
-0.138661
-0.15388
-0.150626
-0.131788
-0.0661018
-0.0937498
-0.126542
-0.163506
-0.203829
-0.246028
-0.287801
-0.325983
-0.357733
-0.379393
-0.387573
-0.379665
-0.354376
-0.312157
-0.255436
-0.188565
-0.117467
-0.0489871
0.00995906
0.0533831
0.0771219
0.0795275
0.0617465
0.0276311
-0.0168551
-0.0624777
-0.10199
-0.129134
-0.141243
-0.136797
-0.118788
-0.0580199
-0.0819038
-0.109786
-0.140546
-0.173216
-0.206234
-0.23753
-0.264595
-0.285313
-0.297117
-0.297843
-0.286063
-0.261422
-0.224862
-0.178705
-0.126533
-0.0728752
-0.0227108
0.01914
0.0486888
0.0633683
0.0624528
0.0471818
0.0206418
-0.01271
-0.0463469
-0.0749258
-0.0940831
-0.102289
-0.0984674
-0.0853728
-0.00175536
0.00239832
0.0104737
0.0226483
0.0389026
0.058375
0.080089
0.102675
0.123926
0.141865
0.154671
0.160903
0.1597
0.150919
0.135199
0.11392
0.089053
0.0629336
0.0379795
0.0163842
-0.000162279
-0.0106855
-0.0150211
-0.0138029
-0.00831696
-0.000588265
0.0074418
0.0140238
0.0182785
0.0194922
0.0179581
0.0358273
0.0521653
0.0725572
0.0959016
0.121757
0.148456
0.174574
0.198633
0.218523
0.232161
0.237739
0.233969
0.220318
0.197161
0.165855
0.128676
0.0886176
0.0490678
0.0134141
-0.0153905
-0.0352178
-0.0450546
-0.045118
-0.0368134
-0.0224863
-0.00565186
0.010568
0.0234434
0.0315938
0.0340379
0.0314726
0.105451
0.141951
0.180337
0.217611
0.252348
0.281908
0.304865
0.319881
0.326336
0.32299
0.309006
0.284109
0.248792
0.204429
0.153335
0.0986909
0.0443135
-0.00571061
-0.0474854
-0.077814
-0.0946521
-0.0974326
-0.0871726
-0.0663773
-0.0386828
-0.00926591
0.0174695
0.0379265
0.0503688
0.0537222
0.0493332
0.19391
0.25416
0.312088
0.362448
0.402565
0.429199
0.440913
0.437163