# vtk DataFile Version 2.0
Func
ASCII
DATASET RECTILINEAR_GRID
DIMENSIONS 31 31 31
X_COORDINATES 31 double
-9.67742
-9.03226
-8.3871
-7.74194
-7.09677
-6.45161
-5.80645
-5.16129
-4.51613
-3.87097
-3.22581
-2.58065
-1.93548
-1.29032
-0.645161
0
0.645161
1.29032
1.93548
2.58065
3.22581
3.87097
4.51613
5.16129
5.80645
6.45161
7.09677
7.74194
8.3871
9.03226
9.67742
Y_COORDINATES 31 double
-9.67742
-9.03226
-8.3871
-7.74194
-7.09677
-6.45161
-5.80645
-5.16129
-4.51613
-3.87097
-3.22581
-2.58065
-1.93548
-1.29032
-0.645161
0
0.645161
1.29032
1.93548
2.58065
3.22581
3.87097
4.51613
5.16129
5.80645
6.45161
7.09677
7.74194
8.3871
9.03226
9.67742
Z_COORDINATES 31 double
-9.67742
-9.03226
-8.3871
-7.74194
-7.09677
-6.45161
-5.80645
-5.16129
-4.51613
-3.87097
-3.22581
-2.58065
-1.93548
-1.29032
-0.645161
0
0.645161
1.29032
1.93548
2.58065
3.22581
3.87097
4.51613
5.16129
5.80645
6.45161
7.09677
7.74194
8.3871
9.03226
9.67742
POINT_DATA 29791
SCALARS data double 1
LOOKUP_TABLE default
-0.0429817
-0.053017
-0.0597232
-0.0617709
-0.0586814
-0.050216
-0.037088
-0.0204827
-0.00263848
0.0145737
0.0292669
0.0397468
0.044681
0.0432462
0.0352088
0.0209449
0.00138815
-0.0220667
-0.0477038
-0.0736428
-0.0980115
-0.119107
-0.135541
-0.146331
-0.150965
-0.148776
-0.140218
-0.126099
-0.108031
-0.0872958
-0.0659793
-0.05564
-0.0680407
-0.0756119
-0.0767058
-0.0706952
-0.0575256
-0.0382358
-0.0144826
0.0104763
0.0339388
0.0532085
0.0658949
0.0701645
0.0649483
0.050057
0.0262063
-0.00507079
-0.0415782
-0.080677
-0.119528
-0.15536
-0.185711
-0.208641
-0.222856
-0.227786
-0.222604
-0.208282
-0.186231
-0.158722
-0.12774
-0.0961263
-0.0565067
-0.0679934
-0.0738008
-0.0722562
-0.0627632
-0.0455871
-0.0219046
0.00614673
0.0347328
0.0606261
0.080652
0.0920479
0.092769
0.0817296
0.0589407
0.0255259
-0.0163997
-0.0639383
-0.113699
-0.162114
-0.20578
-0.241767
-0.267862
-0.282717
-0.285915
-0.276777
-0.256707
-0.227831
-0.192888
-0.154392
-0.115649
-0.0426531
-0.0496026
-0.050912
-0.0452409
-0.0322436
-0.0123982
0.0128309
0.0411475
0.0687628
0.0923912
0.108863
0.115496
0.110405
0.0927522
0.0628747
0.0222853
-0.0264741
-0.0800788
-0.134753
-0.18663
-0.23213
-0.268294
-0.293032
-0.305255
-0.304915
-0.291808
-0.267781
-0.23525
-0.197287
-0.156557
-0.116369
-0.0164658
-0.0159892
-0.010696
-4.68754e-05
0.0159456
0.0364834
0.0600811
0.0845961
0.106901
0.124157
0.133703
0.13338
0.121804
0.0985831
0.0644185
0.021087
-0.0287159
-0.0816316
-0.133975
-0.182097
-0.222754
-0.253421
-0.27251
-0.279466
-0.274746
-0.258843
-0.233884
-0.202392
-0.167269
-0.130951
-0.0960857
0.0156734
0.0246976
0.0370217
0.0522352
0.0699341
0.0890575
0.108292
0.125948
0.140028
0.148534
0.149683
0.142142
0.125229
0.0990708
0.0646679
0.0238612
-0.0208139
-0.0663632
-0.109637
-0.147657
-0.177937
-0.198737
-0.209226
-0.209526
-0.200631
-0.18382
-0.161287
-0.135378
-0.108445
-0.0823349
-0.058616
0.0474603
0.064387
0.0826597
0.100926
0.118438
0.13397
0.146562
0.155209
0.159309
0.157955
0.150464
0.136488
0.116132
0.0900261
0.0593609
0.0258385
-0.00844184
-0.0411758
-0.070093
-0.0932185
-0.109109
-0.117035
-0.117061
-0.110033
-0.0974374
-0.0813159
-0.0637367
-0.0466525
-0.0315603
-0.0194852
-0.0106238
0.0723866
0.0949213
0.116763
0.135812
0.151076
0.161285
0.165928
0.164766
0.158572
0.147564
0.132171
0.113017
0.0909517
0.0670425
0.0425713
0.018984
-0.00219131
-0.0194811
-0.0316293
-0.03778
-0.0376225
-0.0314859
-0.0203413
-0.00572791
0.0104392
0.025459
0.0374715
0.0450021
0.0475304
0.0449077
0.0383961
0.0863873
0.111388
0.13393
0.151482
0.162921
0.167034
0.163729
0.153433
0.138011
0.118627
0.0966389
0.0734884
0.0506437
0.029534
0.0115049
-0.00223682
-0.0106805
-0.0131025
-0.00916496
0.000973728
0.0165934
0.0363963
0.0585808
0.0809693
0.101253
0.116167
0.124
0.123691
0.115635
0.100449
0.0807659
0.0872114
0.111295
0.131816
0.146204
0.15331
0.152053
0.142597
0.12575
0.103941
0.0788969
0.052541
0.0268343
0.00366593
-0.0152555
-0.0284808
-0.0348928
-0.0337632
-0.0248274
-0.0083504
0.0148023
0.0431509
0.0746417
0.106783
0.136822
0.162046
0.178669
0.184956
0.180062
0.165084
0.141183
0.112129
0.0741929
0.0941371
0.110404
0.120818
0.124304
0.119967
0.107969
0.0890846
0.0656204
0.0393291
0.012196
-0.0137089
-0.0363493
-0.0538466
-0.0645878
-0.0673304
-0.0612911
-0.0462462
-0.0226123
0.00847783
0.0451714
0.0849587
0.124853
0.16161
0.192087
0.211971
0.219293
0.213173
0.195115
0.16656
0.132089
0.0477639
0.0606219
0.0708511
0.0770842
0.0784437
0.074274
0.0644677
0.049326
0.030308
0.00860216
-0.0143083
-0.0367195
-0.0567865
-0.0726304
-0.0824635
-0.0847383
-0.0782986
-0.0625446
-0.0375765
-0.00432317
0.0354184
0.0790352
0.123294
0.164597
0.199392
0.22285
0.232614
0.227553
0.209274
0.179266
0.142531
0.00943585
0.0125393
0.0151306
0.0170038
0.0176302
0.0166643
0.0135492
0.0077808
-0.000648048
-0.0116242
-0.0246792
-0.0389367
-0.0531114
-0.0655634
-0.0744258
-0.077795
-0.0739608
-0.0616602
-0.0403167
-0.0102588
0.0271701
0.0696186
0.113912
0.156324
0.193027
0.218786
0.230843
0.227709
0.210823
0.181554
0.144903
-0.0374984
-0.0463312
-0.0528978
-0.0560268
-0.0557303
-0.0519539
-0.0457262
-0.0384708
-0.0320126
-0.0276102
-0.0261438
-0.0279081
-0.0325019
-0.0388036
-0.0450764
-0.0491842
-0.0488914
-0.0422042
-0.0277118
-0.0049057
0.0256212
0.062113
0.101796
0.141135
0.176302
0.201947
0.215059
0.213814
0.19929
0.172595
0.138307
-0.0870837
-0.108947
-0.125776
-0.135014
-0.136024
-0.12827
-0.113095
-0.0926812
-0.0706326
-0.0495573
-0.0317293
-0.0187343
-0.0112458
-0.0089065
-0.0103877
-0.0135964
-0.0160142
-0.0150929
-0.00867077
0.00462505
0.0250963
0.0518354
0.0828022
0.11504
0.145102
0.168007
0.180771
0.181375
0.170409
0.148594
0.119693
-0.130463
-0.164468
-0.191457
-0.207749
-0.212023
-0.203243
-0.182758
-0.153103
-0.119178
-0.0845678
-0.0526427
-0.0261082
-0.00668753
0.00508406
0.00986747
0.00935984
0.00597063
0.0024271
0.00133782
0.00475574
0.0138414
0.0286563
0.0481557
0.0703271
0.0925285
0.110746
0.122353
0.125361
0.1198
0.10589
0.0862559
-0.157076
-0.199575
-0.234529
-0.257654
-0.267073
-0.261324
-0.241407
-0.209645
-0.171369
-0.130466
-0.0908031
-0.0557422
-0.0277861
-0.00830953
0.00252563
0.00569492
0.00306199
-0.00294586
-0.00972378
-0.0148938
-0.0166492
-0.0140038
-0.00688772
0.00388939
0.0168418
0.0294895
0.0398752
0.0462753
0.0481729
0.0451994
0.0386416
-0.157411
-0.201901
-0.240096
-0.267834
-0.282975
-0.283821
-0.27071
-0.245186
-0.211921
-0.174284
-0.135847
-0.0999682
-0.0694546
-0.0462786
-0.0314209
-0.0248372
-0.0255798
-0.0319878
-0.0419527
-0.0532198
-0.0636857
-0.0716534
-0.0760027
-0.0762663
-0.072588
-0.0655459
-0.0562046
-0.0458123
-0.0353397
-0.0257378
-0.0170932
-0.126493
-0.164565
-0.199238
-0.22726
-0.24663
-0.255697
-0.253955
-0.241741
-0.222
-0.196807
-0.168655
-0.140188
-0.113953
-0.092145
-0.0764025
-0.0676576
-0.0660961
-0.0711707
-0.0816918
-0.095971
-0.11202
-0.127773
-0.141302
-0.151
-0.155698
-0.154024
-0.146048
-0.132392
-0.114296
-0.0931627
-0.0703057
-0.0666468
-0.0899101
-0.113732
-0.136448
-0.156613
-0.172916
-0.184008
-0.188834
-0.187827
-0.181237
-0.169894
-0.155158
-0.138808
-0.122862
-0.10935
-0.100062
-0.0963415
-0.0989078
-0.107748
-0.122072
-0.140387
-0.160642
-0.180464
-0.197411
-0.209239
-0.212915
-0.207539
-0.193037
-0.170671
-0.142045
-0.109402
0.011911
0.00950678
0.00239729
-0.00974591
-0.0263294
-0.0466158
-0.0685863
-0.0898882
-0.10815
-0.12164
-0.129303
-0.130937
-0.127244
-0.119752
-0.110591
-0.102175
-0.0968395
-0.0964968
-0.102341
-0.114623
-0.132584
-0.154514
-0.177969
-0.200064
-0.217841
-0.227149
-0.226254
-0.214404
-0.192642
-0.162472
-0.126698
0.0932978
0.113594
0.125762
0.127459
0.118327
0.0984299
0.0701654
0.0368401
0.0033492
-0.0268623
-0.0510408
-0.0675145
-0.0758819
-0.0770397
-0.0729838
-0.0664545
-0.0604701
-0.0578526
-0.0607924
-0.0704845
-0.0869342
-0.108938
-0.13426
-0.159926
-0.182657
-0.19781
-0.203035
-0.197015
-0.180427
-0.154426
-0.122035
0.160433
0.20041
0.230255
0.245982
0.246411
0.230983
0.202141
0.163638
0.122106
0.0820876
0.047478
0.0209938
0.00388577
-0.00416732
-0.00489294
-0.00106724
0.00400517
0.00702788
0.00522635
-0.00320897
-0.0188513
-0.0409558
-0.0675965
-0.0959441
-0.122709
-0.143286
-0.154985
-0.156118
-0.147004
-0.128372
-0.103236
0.200131
0.252762
0.29498
0.321826
0.331599
0.323302
0.299113
0.262684
0.221289
0.17976
0.142364
0.112223
0.090989
0.0787054
0.0739405
0.0741268
0.0760785
0.0765271
0.0726416
0.0624808
0.0452847
0.0215805
-0.00693031
-0.0376246
-0.0673869
-0.0919568
-0.108587
-0.115485
-0.112788
-0.100921
-0.0828383
0.206918
0.263236
0.310441
0.343401
0.360272
0.359857
0.343851
0.315326
0.281073
0.245417
0.21222
0.184332
0.16331
0.149277
0.141053
0.136451
0.13275
0.127178
0.117367
0.10176
0.0798629
0.0523312
0.0208565
-0.0120679
-0.0435481
-0.0697327
-0.0880808
-0.0969629
-0.0966358
-0.0875021
-0.0725413
0.184023
0.235614
0.280463
0.314015
0.334616
0.341104
0.33458
0.317217
0.294434
0.269455
0.24513
0.223512
0.205648
0.191496
0.18005
0.169597
0.158116
0.143661
0.124727
0.100551
0.0712889
0.038047
0.00274478
-0.0321177
-0.0638281
-0.088838
-0.105005
-0.111094
-0.107783
-0.0957819
-0.0782553
0.141742
0.182727
0.219782
0.249376
0.270259
0.281466
0.283516
0.277577
0.267241
0.254358
0.240494
0.226648
0.213156
0.199678
0.185324
0.168877
0.149092
0.124985
0.0960693
0.0625536
0.0254146
-0.0136381
-0.0523383
-0.0880982
-0.118347
-0.139716
-0.150563
-0.150168
-0.139801
-0.120694
-0.0962181
0.093579
0.12189
0.148712
0.17179
0.190323
0.203614
0.211704
0.214869
0.214898
0.212365
0.207625
0.200693
0.191239
0.178639
0.162107
0.140879
0.114419
0.0826112
0.0458869
0.00531665
-0.0374029
-0.0800473
-0.120069
-0.154836
-0.181938
-0.198154
-0.202346
-0.194288
-0.175814
-0.148663
-0.116426
0.051444
0.0683876
0.0853561
0.101339
0.115919
0.128659
0.139304
0.147522
0.153739
0.157644
0.158769
0.156481
0.15004
0.13869
0.121782
0.0989085
0.0700477
0.035661
-0.00325225
-0.0451393
-0.0879616
-0.129325
-0.166689
-0.197588
-0.219894
-0.230667
-0.229179
-0.215676
-0.192157
-0.160641
-0.124652
0.0225441
0.0312923
0.0406561
0.0505089
0.0606707
0.0709045
0.0808195
0.0898607
0.0977142
0.103697
0.107024
0.106857
0.102387
0.0929229
0.0779941
0.0574411
0.031498
0.000839448
-0.033413
-0.0697096
-0.106157
-0.140636
-0.170986
-0.195181
-0.211541
-0.217676
-0.213255
-0.198419
-0.175188
-0.145398
-0.112158
0.00770004
0.0117786
0.0163125
0.0217543
0.0279353
0.0346819
0.041711
0.0485022
0.0545844
0.0593349
0.062075
0.0621327
0.0589042
0.0519192
0.0409061
0.0258441
0.00700428
-0.0150335
-0.0393896
-0.0649093
-0.0902258
-0.113844
-0.134271
-0.150125
-0.160289
-0.163187
-0.158544
-0.146504
-0.128665
-0.106247
-0.0817548
-0.0508912
-0.0620661
-0.0686144
-0.0690695
-0.0627778
-0.049657
-0.0306646
-0.00729828
0.0174191
0.040961
0.0607854
0.0746107
0.0806538
0.0778281
0.0658581
0.0453119
0.0175282
-0.0155198
-0.0514235
-0.0875623
-0.121352
-0.150475
-0.173075
-0.187884
-0.194299
-0.191517
-0.180376
-0.16206
-0.13863
-0.111934
-0.084404
-0.0641775
-0.0774194
-0.0841035
-0.0823292
-0.0713533
-0.0514898
-0.024095
0.00881687
0.042873
0.0744629
0.0999893
0.116266
0.120865
0.112391
0.0906488
0.0566855
0.0126701
-0.0383222
-0.0926182
-0.146291
-0.19554
-0.237039
-0.268213
-0.287416
-0.294014
-0.287014
-0.268117
-0.23939
-0.203652
-0.163633
-0.122809
-0.0631103
-0.0744728
-0.0782228
-0.0724474
-0.056475
-0.0310893
0.00218249
0.0407052
0.0793696
0.113877
0.139999
0.154062
0.153359
0.136483
0.103519
0.0560811
-0.00285087
-0.0692243
-0.138317
-0.205188
-0.265159
-0.31426
-0.349557
-0.369351
-0.373255
-0.360511
-0.333494
-0.295305
-0.249366
-0.199119
-0.148696
-0.0445171
-0.0498049
-0.0476125
-0.0364664
-0.0160017
0.0127867
0.0479641
0.0866535
0.12383
0.155109
0.176254
0.183672
0.17485
0.148695
0.105721
0.048074
-0.0206724
-0.0958523
-0.172177
-0.244246
-0.307094
-0.356665
-0.390162
-0.40623
-0.404988
-0.386341
-0.353298
-0.309393
-0.258571
-0.204542
-0.151511
-0.0109552
-0.00687611
0.00350967
0.0206631
0.0444955
0.0737128
0.106344
0.13966
0.169551
0.192216
0.204074
0.202196
0.184697
0.151037
0.102192
0.0406389
-0.0298395
-0.104514
-0.178179
-0.245679
-0.302443
-0.34494
-0.370997
-0.37994
-0.372553
-0.349687
-0.314681
-0.271242
-0.223217
-0.174039
-0.127168
0.029417
0.0439305
0.0626772
0.084911
0.110063
0.136662
0.162971
0.1868
0.205591
0.216655
0.217555
0.206417
0.182235
0.145101
0.0963277
0.0384311
-0.0250552
-0.0899006
-0.151607
-0.205883
-0.249121
-0.278779
-0.293634
-0.293854
-0.280893
-0.256647
-0.224427
-0.187689
-0.149705
-0.11315
-0.0801674
0.0689046
0.0928456
0.118299
0.143371
0.167076
0.187908
0.204631
0.21593
0.221174
0.219142
0.208856
0.189725
0.161731
0.12557
0.0827273
0.0354514
-0.0133795
-0.0605129
-0.102659
-0.136874
-0.160926
-0.173575
-0.174733
-0.165464
-0.147809
-0.124654
-0.0989693
-0.0736289
-0.0509194
-0.0324084
-0.0185683
0.0992868
0.129574
0.158503
0.183294
0.202676
0.215244
0.220422
0.217909
0.208991
0.193992
0.173429
0.147998
0.118634
0.0865483
0.0532644
0.0205902
-0.00945785
-0.0348264
-0.0536518
-0.0645326
-0.0667618
-0.0604992
-0.0468222
-0.0276561
-0.00553737
0.0158018
0.0338633
0.0464821
0.052567
0.0517663
0.0454016
0.11526
0.147754
0.176375
0.197861
0.210805
0.213995
0.207485
0.191893
0.170035
0.143555
0.114247
0.0839072
0.0542806
0.0270151
0.00364904
-0.0144176
-0.0259583
-0.0300209
-0.0260571
-0.0140927
0.00515741
0.0302239
0.0589322
0.0885432
0.116051
0.136998
0.14925
0.151258
0.143104
0.125538
0.101573
0.113879
0.144189
0.169036
0.185163
0.191162
0.18606
0.17031
0.145091
0.114012
0.0795215
0.04421
0.0105938
-0.0190134
-0.0426041
-0.0585363
-0.0655841
-0.0629676
-0.0504262
-0.028298
0.00237067
0.0397869
0.0814252
0.124163
0.16449
0.198874
0.222157
0.232279
0.228012
0.210386
0.180965
0.144191
0.0943089
0.118342
0.136742
0.146781
0.147193
0.13725
0.117431
0.0889143
0.0551302
0.0185852
-0.0180227
-0.0520047
-0.0808252
-0.102231
-0.11435
-0.11579
-0.105715
-0.0839476
-0.051074
-0.00855273
0.0412619
0.0951709
0.149329
0.199519
0.241596
0.269642
0.281312
0.275335
0.253317
0.217288
0.172741
0.0573054
0.0714446
0.0814715
0.0857007
0.0831647
0.0733855
0.0564685
0.0329884
0.00514928
-0.0253212
-0.0564046
-0.0858912
-0.111472
-0.130848
-0.141861
-0.142654
-0.131844
-0.108719
-0.0734302
-0.0271802
0.0277101
0.0878383
0.14895
0.206264
0.255007
0.288451
0.303698
0.299119
0.276482
0.237952
0.189634
0.00520958
0.00632844
0.00642563
0.00529477
0.00246319
-0.00226906
-0.00945238
-0.0195825
-0.0325809
-0.0482358
-0.0659367
-0.0845971
-0.102635
-0.118014
-0.128386
-0.131314
-0.124568
-0.106455
-0.0761524
-0.0340249
0.0182068
0.0774436
0.139429
0.199106
0.251218
0.288339
0.306948
0.304896
0.283738
0.245497
0.196414
-0.0571769
-0.0714659
-0.0827062
-0.0893484
-0.0911665
-0.0880215
-0.0811739
-0.0723563
-0.064133
-0.0582445
-0.0559691
-0.0578299
-0.0634202
-0.0713421
-0.0793241
-0.0844913
-0.0837676
-0.0743462
-0.0541716
-0.0224088
0.020259
0.0715158
0.127581
0.183562
0.234085
0.271409
0.291559
0.291894
0.27347
0.237934
0.191155
-0.121554
-0.152171
-0.175671
-0.188738
-0.190299
-0.179806
-0.159019
-0.130695
-0.0999858
-0.070566
-0.0456744
-0.0276168
-0.0174285
-0.0146902
-0.0175868
-0.023175
-0.0278533
-0.0279226
-0.0201859
-0.00254376
0.0255852
0.0630411
0.107003
0.153286
0.196942
0.230606
0.250201
0.252779
0.238727
0.209107
0.1689
-0.175985
-0.221288
-0.256556
-0.277032
-0.280791
-0.266844
-0.237028
-0.194563
-0.146491
-0.0978872
-0.0535374
-0.0172907
0.00840656
0.0228102
0.0269085
0.0232142
0.0153028
0.00724238
0.00295306
0.00555365
0.0168566
0.0370477
0.0646512
0.0967269
0.129359
0.156443
0.17423
0.17975
0.172673
0.153291
0.125229
-0.206669
-0.261548
-0.305589
-0.333283
-0.342049
-0.330506
-0.300054
-0.253622
-0.198866
-0.141309
-0.0864259
-0.0389623
-0.00240468
0.0213979
0.0323683
0.0321069
0.0235265
0.0103719
-0.00335965
-0.0140326
-0.0188973
-0.0164743
-0.00670678
0.00909342
0.0285614
0.047707
0.0635184
0.0733153
0.0761208
0.0713428
0.060925
-0.201712
-0.257569
-0.304377
-0.336827
-0.352083
-0.348519
-0.326652
-0.288358
-0.240318
-0.187328
-0.134436
-0.0863561
-0.0469661
-0.0189069
-0.0033502
5.62589e-05
-0.0069985
-0.0217871
-0.0409582
-0.0610104
-0.0787578
-0.0917265
-0.0984072
-0.098359
-0.0921112
-0.0809716
-0.0669087
-0.0520284
-0.0377616
-0.0255627
-0.0152647
-0.155744
-0.201837
-0.243058
-0.275323
-0.296068
-0.303648
-0.297432
-0.277692
-0.248583
-0.213069
-0.17467
-0.137086
-0.103819
-0.0778147
-0.0611572
-0.054857
-0.0588071
-0.0718335
-0.0918663
-0.116192
-0.141787
-0.165671
-0.185221
-0.198419
-0.203983
-0.200444
-0.188557
-0.169628
-0.145259
-0.117557
-0.0879458
-0.0733752
-0.0993868
-0.126227
-0.151897
-0.174619
-0.192966
-0.205149
-0.209621
-0.206892
-0.197346
-0.182173
-0.163285
-0.143136
-0.124459
-0.10993
-0.101807
-0.101654
-0.110111
-0.126792
-0.150272
-0.178243
-0.207768
-0.235618
-0.258622
-0.274
-0.277918
-0.269892
-0.25029
-0.220562
-0.183094
-0.140469
0.0304119
0.0313824
0.0255754
0.0124445
-0.00736218
-0.0328235
-0.0612087
-0.0893193
-0.113637
-0.131771
-0.142294
-0.144985
-0.140865
-0.132067
-0.121496
-0.112377
-0.107752
-0.11001
-0.120521
-0.139369
-0.165311
-0.195914
-0.227864
-0.257379
-0.280674
-0.292337
-0.290757
-0.275329
-0.247084
-0.208256
-0.162021
0.13371
0.162867
0.180377
0.183224
0.170856
0.14381
0.105379
0.0599251
0.0145288
-0.0260522
-0.0580901
-0.0794044
-0.0895963
-0.0900442
-0.083596
-0.0740602
-0.0655436
-0.061806
-0.065687
-0.0786433
-0.10054
-0.129671
-0.163017
-0.196667
-0.226368
-0.246029
-0.253144
-0.246236
-0.225796
-0.193564
-0.152802
0.213999
0.266264
0.304098
0.322616
0.320289
0.297213
0.256804
0.203906
0.147957
0.0951712
0.0507516
0.0181945
-0.00107848
-0.00780351
-0.00460579
0.00451937
0.0149494
0.0221712
0.022466
0.0134792
-0.0054634
-0.033292
-0.0674021
-0.104056
-0.138955
-0.166076
-0.182341
-0.185647
-0.176037
-0.154653
-0.124542
0.255039
0.320477
0.371206
0.401454
0.409144
0.394066
0.359363
0.309634
0.255045
0.202094
0.156346
0.121686
0.0999114
0.0906179
0.0914404
0.0985472
0.107384
0.113413
0.112801
0.103005
0.0831081
0.0539154
0.0177685
-0.0218283
-0.0607603
-0.0934781
-0.116715
-0.128115
-0.127556
-0.115771
-0.095593
0.251694
0.318449
0.372504
0.40829
0.423676
0.418325
0.394807
0.356869
0.313755
0.271118
0.233779
0.205062
0.186449
0.177489
0.176031
0.178674
0.18145
0.180479
0.172581
0.155781
0.129587
0.0950576
0.0546039
0.0116333
-0.029969
-0.065165
-0.0908827
-0.104927
-0.107418
-0.0990915
-0.0828127
0.21062
0.268227
0.316679
0.351556
0.371082
0.374951
0.364996
0.343719
0.318188
0.292373
0.269528
0.251706
0.239532
0.2322
0.227705
0.22325
0.21581
0.202667
0.181877
0.15263
0.115426
0.0720474
0.0253288
-0.0212085
-0.0638379
-0.0978276
-0.120605
-0.13051
-0.12829
-0.115144
-0.0943334
0.14778
0.189746
0.226677
0.25577
0.275839
0.286696
0.289418
0.285164
0.278228
0.270565
0.263529
0.25761
0.252364
0.246503
0.238148
0.225173
0.205647
0.178215
0.142401
0.0988148
0.0491801
-0.00378385
-0.0566585
-0.105695
-0.147271
-0.176747
-0.19223
-0.192808
-0.180047
-0.155896
-0.124184
0.0821108
0.107167
0.130734
0.151772
0.169684
0.184423
0.196413
0.205645
0.213772
0.22092
0.226729
0.230298
0.230253
0.22492
0.212582
0.191767
0.161563
0.12186
0.0734979
0.018338
-0.0408336
-0.100511
-0.156801
-0.205809
-0.244049
-0.266932
-0.273255
-0.26284
-0.238014
-0.201454
-0.15758
0.0297128
0.040973
0.0529826
0.0661143
0.0802397
0.0953883
0.111572
0.128013
0.144461
0.159844
0.172715
0.181348
0.183888
0.178561
0.16391
0.139023
0.103741
0.0587801
0.00578189
-0.0527183
-0.113452
-0.172661
-0.226436
-0.271069
-0.303421
-0.319172
-0.317665
-0.299441
-0.267007
-0.223401
-0.173189
-0.000729572
0.0020445
0.00637329
0.0134303
0.0232938
0.0360856
0.0514919
0.0685269
0.0860372
0.102537
0.116279
0.125409
0.128139
0.122931
0.108695
0.0849428
0.0519125
0.0106244
-0.0371351
-0.0888773
-0.141582
-0.191916
-0.236524
-0.272313
-0.296754
-0.306248
-0.300643
-0.280277
-0.247757
-0.205851
-0.1587
-0.0104237
-0.0109196
-0.0102315
-0.00686716
-0.000846453
0.00790078
0.0191023
0.0318682
0.0450485
0.057395
0.067503
0.0739575
0.075457
0.0709494
0.0597578
0.0416743
0.0170222
-0.0133242
-0.0479699
-0.0850586
-0.122396
-0.157602
-0.18832
-0.212403
-0.228128
-0.233092
-0.227041
-0.210258
-0.184912
-0.152946
-0.11767
-0.0421729
-0.049993
-0.0528924
-0.049569
-0.0394293
-0.0226842
-0.000185284
0.0263879
0.0539381
0.0797856
0.101234
0.115858
0.121769
0.117825
0.103771
0.080273
0.0488484
0.0117116
-0.0284497
-0.0687311
-0.106294
-0.138627
-0.163765
-0.180423
-0.188065
-0.186071
-0.175359
-0.157503
-0.134551
-0.108465
-0.081647
-0.0509689
-0.059241
-0.0606474
-0.0534829
-0.037123
-0.012298
0.0197946
0.0568602
0.0944487
0.128737
0.155912
0.172588
0.176196
0.165276
0.139683
0.100637
0.0506031
-0.00695359
-0.0679127
-0.127897
-0.182708
-0.228726
-0.263217
-0.284528
-0.292162
-0.28543
-0.266191
-0.237151
-0.201161
-0.161148
-0.120627
-0.0467876
-0.0520713
-0.0494286
-0.0372336
-0.014931
0.0162475
0.0548844
0.098011
0.140421
0.177543
0.20487
0.218473
0.215471
0.194391
0.155409
0.100402
0.0327763
-0.0428554
-0.121138
-0.196498
-0.263703
-0.318381
-0.357388
-0.379039
-0.38316
-0.369415
-0.340483
-0.300297
-0.252448
-0.200739
-0.14938
-0.0267331
-0.0255592
-0.0166394
0.00119311
0.0281648
0.0628455
0.103347
0.146457
0.187043
0.220407
0.24199
0.247902
0.235426
0.2034
0.152463
0.0850913
0.00539853
-0.0812495
-0.168773
-0.250984
-0.322227
-0.37795
-0.415107
-0.43237
-0.430146
-0.408851
-0.371962
-0.323993
-0.269212
-0.2118
-0.156154
0.0067155
0.0169347
0.0336533
0.0569873
0.0867223
0.121228
0.158494
0.195527
0.228132
0.252197
0.2638
0.259692
0.237753
0.197353
0.139579
0.0672575
-0.015254
-0.102461
-0.188286
-0.266694
-0.33234
-0.381128
-0.410598
-0.420098
-0.410731
-0.383892
-0.343524
-0.294327
-0.240628
-0.186419
-0.135431
0.046013
0.0658478
0.089983
0.117287
0.147104
0.177785
0.207497
0.233937
0.254546
0.266376
0.266682
0.253267
0.224855
0.18139
0.124228
0.0561547
-0.0187843
-0.0956435
-0.169078
-0.233922
-0.285775
-0.3215
-0.339543
-0.340059
-0.324789
-0.296135
-0.258067
-0.214907
-0.170529
-0.128178
-0.0902987
0.0839962
0.112183
0.141669
0.170181
0.196705
0.219746
0.237982
0.250216
0.255976
0.253923
0.242861
0.22192
0.190791
0.149946
0.100783
0.0456583
-0.0122174
-0.0690514
-0.12086
-0.163943
-0.195347
-0.213258
-0.217236
-0.20827
-0.188599
-0.161509
-0.130602
-0.0993648
-0.0707257
-0.0467611
-0.0282369
0.112537
0.145803
0.177094
0.203282
0.223133
0.235445
0.239631
0.23579
0.225588
0.209427
0.187767
0.16111
0.130108
0.0956737
0.0590914
0.0220656
-0.013306
-0.0446922
-0.0697839
-0.0866293
-0.0939543
-0.0914234
-0.0797749
-0.0608013
-0.0371281
-0.012749
0.00928991
0.0265231
0.0372611
0.0407598
0.0381117
0.126094
0.160139
0.189232
0.20982
0.220591
0.220698
0.210303
0.190696
0.165297
0.136058
0.104898
0.073546
0.0435096
0.0161008
-0.00750396
-0.0262041
-0.0389411
-0.0447629
-0.0429545
-0.0332434
-0.0159816
0.00771915
0.0359585
0.0661402
0.0952438
0.118664
0.133798
0.139088
0.134124
0.119404
0.0978332
0.121411
0.151744
0.175141
0.188139
0.18947
0.178621
0.15628
0.124481
0.0875981
0.0485697
0.0102766
-0.024703
-0.0542093
-0.0765519
-0.0904969
-0.0952279
-0.0902987
-0.0756557
-0.0516995
-0.0194084
0.019574
0.0629027
0.107601
0.15023
0.18723
0.213319
0.225973
0.224166
0.208568
0.180622
0.144841
0.0974496
0.119985
0.135252
0.140432
0.134419
0.116964
0.0888638
0.052187
0.0111371
-0.0312193
-0.0718124
-0.107803
-0.136723
-0.156558
-0.165791
-0.163417
-0.148953
-0.122494
-0.084793
-0.0373855
0.0173531
0.0762195
0.135333
0.190386
0.237079
0.269244
0.283983
0.28031
0.259584
0.223826
0.178821
0.0550549
0.0663492
0.0720908
0.0706441
0.0612178
0.0437456
0.0186658
-0.0127158
-0.0476092
-0.0838236
-0.119025
-0.150856
-0.177019
-0.195347
-0.203894
-0.201032
-0.185582
-0.156993
-0.115526
-0.0624689
-0.000247755
0.0675809
0.136526
0.20149
0.257314
0.296743
0.316141
0.314126
0.292281
0.252845
0.202463
-0.00292895
-0.00564851
-0.0102496
-0.0167177
-0.02534
-0.0360409
-0.0490889
-0.0645927
-0.0822673
-0.101711
-0.122208
-0.142648
-0.16147
-0.176677
-0.185935
-0.186783
-0.176909
-0.154509
-0.11865
-0.0696467
-0.00929021
0.0590922
0.130838
0.200332
0.261656
0.306473
0.330295
0.331082
0.310203
0.269798
0.216889
-0.0707374
-0.0893344
-0.104876
-0.115415
-0.120524
-0.119974
-0.11483
-0.106904
-0.0990565
-0.0932392
-0.090963
-0.0929538
-0.0989206
-0.107453
-0.116111
-0.1217
-0.120713
-0.10986
-0.086642
-0.0499159
-0.00028469
0.0597374
0.125876
0.192493
0.253302
0.299265
0.325221
0.328433
0.309715
0.270835
0.218617
-0.13872
-0.173441
-0.200108
-0.214857
-0.216396
-0.204287
-0.18018
-0.147392
-0.111877
-0.0779523
-0.049471
-0.0292248
-0.0185185
-0.0169308
-0.0223469
-0.0312528
-0.0392791
-0.0418695
-0.035012
-0.0159772
0.0161348
0.0601003
0.112629
0.168712
0.222335
0.264559
0.289966
0.295277
0.280549
0.246909
0.200364
-0.193474
-0.241893
-0.278614
-0.298265
-0.298691
-0.279194
-0.241549
-0.189916
-0.1325
-0.0753678
-0.0242332
0.0163126
0.0433883
0.0561909
0.0560601
0.0462334
0.031291
0.0164509
0.00676466
0.00628816
0.0174228
0.0404986
0.0737047
0.11333
0.154376
0.189079
0.212304
0.220494
0.212914
0.189794
0.155734
-0.220122
-0.276314
-0.319727
-0.344277
-0.347176
-0.327456
-0.286457
-0.228223
-0.161678
-0.0934873
-0.0302082
0.0225285
0.0606843
0.0822721
0.0875371
0.0788316
0.0601588
0.0365523
0.0133246
-0.00473614
-0.0140599
-0.0127972
-0.00102219
0.019348
0.0449844
0.0703698
0.0911691
0.103869
0.10706
0.0999108
0.0851796
-0.206714
-0.261421
-0.305412
-0.33297
-0.341114
-0.328662
-0.29604
-0.246169
-0.186783
-0.123722
-0.0630566
-0.0103629
0.0299057
0.0549051
0.0636949
0.0572807
0.038359
0.0108994
-0.0204272
-0.050901
-0.0763878
-0.0938668
-0.101747
-0.0999712
-0.0898221
-0.0738375
-0.0551466
-0.0368977
-0.0209121
-0.00906343
-0.000580568
-0.149329
-0.191576
-0.228046
-0.254507
-0.268348
-0.268287
-0.253565
-0.225191
-0.187881
-0.145319
-0.101777
-0.0616326
-0.0288868
-0.00672039
0.00288297
-0.000633449
-0.0163856
-0.0421795
-0.0748047
-0.110434
-0.145108
-0.175227
-0.197927
-0.211366
-0.214778
-0.207562
-0.19141
-0.168802
-0.141608
-0.112477
-0.0824104
-0.0555484
-0.0754899
-0.0963867
-0.116373
-0.133723
-0.147172
-0.154788
-0.155288
-0.149097
-0.13686
-0.120118
-0.101177
-0.0828489
-0.0681099
-0.0596854
-0.059647
-0.0691091
-0.0880412
-0.115236
-0.148407
-0.18446
-0.219885
-0.251154
-0.275126
-0.289334
-0.290508
-0.278846
-0.255911
-0.223238
-0.183768
-0.13974
0.0558083
0.0637462
0.0637847
0.0550433
0.0380674
0.0140161
-0.0142553
-0.0432788
-0.0688384
-0.0883361
-0.1003
-0.104618
-0.102532
-0.0964338
-0.0894489
-0.0849013
-0.0857505
-0.0941133
-0.110921
-0.135723
-0.166732
-0.201084
-0.235201
-0.265268
-0.287684
-0.297427
-0.29332
-0.275857
-0.245947
-0.20626
-0.159582
0.159347
0.194323
0.215867
0.220599
0.207906
0.178831
0.136744
0.0867538
0.0370364
-0.00711232
-0.0416515
-0.0643376
-0.0749412
-0.0751689
-0.0682705
-0.0584291
-0.0500069
-0.0468512
-0.0517154
-0.0658318
-0.0887717
-0.118563
-0.152006
-0.185163
-0.213899
-0.23248
-0.238628
-0.231775
-0.212108
-0.181598
-0.142964
0.230743
0.285367
0.32363
0.340485
0.334504
0.306667
0.26041
0.201643
0.140957
0.0851983
0.0399242
0.00866937
-0.00740529
-0.00951231
-0.000878517
0.0138926
0.0296725
0.0416113
0.0458452
0.0400431
0.0236654
-0.00206185
-0.0344162
-0.0696449
-0.103533
-0.13047
-0.147451
-0.153071
-0.146954
-0.130258
-0.105324
0.254555
0.316971
0.363163
0.387617
0.388623
0.367187
0.326421
0.2721
0.21522
0.162742
0.120363
0.0917633
0.078232
0.0786563
0.0898629
0.107243
0.125607
0.139988
0.146356
0.142166
0.126636
0.100748
0.0669923
0.0289305
-0.00936137
-0.0427926
-0.0680717
-0.083373
-0.0881528
-0.0830285
-0.0700487
0.229035
0.286488
0.330578
0.356564
0.363001
0.350997
0.323056
0.283994
0.243266
0.206583
0.178465
0.161618
0.156648
0.162109
0.174851
0.190607
0.20477
0.213106
0.21237
0.200749
0.178069
0.145743
0.106495
0.0639202
0.0219628
-0.0147485
-0.0430683
-0.0612682
-0.0691583
-0.0673738
-0.0580932
0.165759
0.208229
0.241947
0.263919
0.273355
0.271485
0.260064
0.242377
0.224932
0.211232
0.203692
0.20325
0.209254
0.219619
0.231197
0.240313
0.243413
0.237631
0.221225
0.193865
0.156688
0.112145
0.0636564
0.0151537
-0.0294183
-0.065555
-0.0905946
-0.103399
-0.104603
-0.095483
-0.0789017
0.0861276
0.108963
0.12815
0.142799
0.152911
0.159781
0.164406
0.168353
0.174649
0.184274
0.197247
0.212514
0.228026
0.241016
0.248394
0.247222
0.235215
0.211127
0.175007
0.128293
0.0737083
0.0149855
-0.043563
-0.0975207
-0.14286
-0.174891
-0.191628
-0.192813
-0.180126
-0.155867
-0.123882
0.0124571
0.01696
0.0220455
0.0288461
0.038014
0.0508196
0.0675986
0.0883863
0.113083
0.140484
0.168569
0.194635
0.21554
0.228063
0.229309
0.217112
0.19039
0.149377
0.0957031
0.0323364
-0.0366543
-0.106479
-0.172102
-0.22874
-0.272341
-0.297959
-0.304303
-0.291972
-0.263611
-0.222518
-0.173554
-0.0371636
-0.0450141
-0.0497596
-0.0489686
-0.0416221
-0.0266839
-0.00417184
0.0249139
0.0584334
0.0938791
0.1281
0.157583
0.178777
0.188472
0.18418
0.164447
0.129089
0.0793008
0.0176175
-0.0522231
-0.125589
-0.197363
-0.262411
-0.316058
-0.354519
-0.372902
-0.370455
-0.348572
-0.310155
-0.25904
-0.200472
-0.055515
-0.0681194
-0.0770461
-0.0794169
-0.0742543
-0.0606357
-0.0390224
-0.0106907
0.0215475
0.0549366
0.0862603
0.11216
0.129445
0.135423
0.1282
0.106907
0.0718361
0.0244768
-0.0325686
-0.0957426
-0.160823
-0.223273
-0.278646
-0.322975
-0.353124
-0.364879
-0.358028
-0.333586
-0.294589
-0.244522
-0.188333
-0.0479477
-0.0588196
-0.0670073
-0.0698211
-0.0666816
-0.0569205
-0.0409571
-0.0200225
0.00358711
0.0277112
0.049907
0.0677087
0.0788489
0.0814922
0.0744298
0.0572177
0.0302454
-0.00526095
-0.0473146
-0.0932916
-0.140134
-0.184594
-0.223518
-0.25411
-0.274183
-0.280849
-0.273754
-0.253637
-0.223049
-0.184451
-0.141863
-0.0152183
-0.0152543
-0.0112788
-0.00253631
0.0112669
0.0297771
0.0521833
0.0770965
0.102184
0.125247
0.144053
0.156583
0.16125
0.157095
0.14392
0.122333
0.0936952
0.0599933
0.0236345
-0.0127937
-0.0467869
-0.0761688
-0.0992865
-0.115131
-0.123383
-0.123879
-0.117517
-0.105635
-0.0900121
-0.0721996
-0.0540408
-0.0145927
-0.0124028
-0.00471901
0.00947633
0.0304247
0.057344
0.0890547
0.123591
0.157598
0.187904
0.211314
0.22497
0.226686
0.21523
0.190519
0.153689
0.107008