# vtk DataFile Version 2.0
Func
ASCII
DATASET RECTILINEAR_GRID
DIMENSIONS 31 31 31
X_COORDINATES 31 double
-9.67742
-9.03226
-8.3871
-7.74194
-7.09677
-6.45161
-5.80645
-5.16129
-4.51613
-3.87097
-3.22581
-2.58065
-1.93548
-1.29032
-0.645161
0
0.645161
1.29032
1.93548
2.58065
3.22581
3.87097
4.51613
5.16129
5.80645
6.45161
7.09677
7.74194
8.3871
9.03226
9.67742
Y_COORDINATES 31 double
-9.67742
-9.03226
-8.3871
-7.74194
-7.09677
-6.45161
-5.80645
-5.16129
-4.51613
-3.87097
-3.22581
-2.58065
-1.93548
-1.29032
-0.645161
0
0.645161
1.29032
1.93548
2.58065
3.22581
3.87097
4.51613
5.16129
5.80645
6.45161
7.09677
7.74194
8.3871
9.03226
9.67742
Z_COORDINATES 31 double
-9.67742
-9.03226
-8.3871
-7.74194
-7.09677
-6.45161
-5.80645
-5.16129
-4.51613
-3.87097
-3.22581
-2.58065
-1.93548
-1.29032
-0.645161
0
0.645161
1.29032
1.93548
2.58065
3.22581
3.87097
4.51613
5.16129
5.80645
6.45161
7.09677
7.74194
8.3871
9.03226
9.67742
POINT_DATA 29791
SCALARS data double 1
LOOKUP_TABLE default
-0.0408169
-0.0543519
-0.0679722
-0.0801787
-0.0899956
-0.0961496
-0.09756
-0.0932886
-0.0830221
-0.0663559
-0.0433026
-0.0143601
0.0194353
0.0565188
0.0948673
0.132135
0.165845
0.193626
0.213468
0.223953
0.224451
0.215219
0.197386
0.172841
0.143971
0.113463
0.0841156
0.0582954
0.0370086
0.0212177
0.00981864
-0.0656562
-0.0871713
-0.108505
-0.12736
-0.142299
-0.151586
-0.153591
-0.146949
-0.131415
-0.106495
-0.0723017
-0.0296512
0.0198553
0.0738373
0.129238
0.182526
0.229985
0.268077
0.293835
0.30524
0.301515
0.283291
0.252566
0.212518
0.167089
0.12091
0.0783832
0.043103
0.0163184
-0.000853117
-0.0103467
-0.0879781
-0.116293
-0.143893
-0.168009
-0.18676
-0.198073
-0.200019
-0.191067
-0.171224
-0.14008
-0.097953
-0.0460004
0.0136801
0.078058
0.143293
0.20499
0.258554
0.299661
0.324761
0.331565
0.319426
0.28955
0.24492
0.190026
0.130308
0.072444
0.0221241
-0.0161351
-0.0412042
-0.0521907
-0.0522095
-0.0971233
-0.12781
-0.157192
-0.182452
-0.201593
-0.212464
-0.213339
-0.202831
-0.181285
-0.148515
-0.105055
-0.0522831
0.00748056
0.0709701
0.134096
0.192213
0.2405
0.274482
0.29058
0.286675
0.262529
0.22001
0.162991
0.0970157
0.0286218
-0.0337745
-0.0837917
-0.116626
-0.131637
-0.128582
-0.111966
-0.0841278
-0.110134
-0.134264
-0.154386
-0.168861
-0.175968
-0.174558
-0.163724
-0.144059
-0.115629
-0.079064
-0.0356791
0.0124176
0.0623029
0.110323
0.152322
0.184006
0.201426
0.201534
0.182749
0.145381
0.0918579
0.0265987
-0.0443373
-0.113981
-0.1729
-0.214774
-0.235117
-0.234116
-0.212414
-0.175927
-0.0475069
-0.0612409
-0.0729892
-0.0817592
-0.0867527
-0.087084
-0.082474
-0.0727231
-0.0583991
-0.0397079
-0.0171354
0.00842682
0.0355558
0.0622297
0.0858423
0.103352
0.111566
0.107553
0.0891274
0.0553848
0.00709971
-0.0530577
-0.120636
-0.189729
-0.253686
-0.30299
-0.332029
-0.337098
-0.319252
-0.279973
-0.226194
0.00435012
0.00780462
0.0127709
0.0190236
0.0262186
0.0341944
0.0422727
0.0498897
0.0567776
0.0627614
0.0677302
0.0715052
0.073684
0.0735107
0.0697984
0.0609666
0.0452181
0.0208393
-0.0134139
-0.0578526
-0.111496
-0.17186
-0.235025
-0.2959
-0.348828
-0.385179
-0.400483
-0.392044
-0.361557
-0.311029
-0.247725
0.0531188
0.0726534
0.0929934
0.112949
0.13112
0.146422
0.157402
0.162872
0.16297
0.157663
0.147286
0.132412
0.113665
0.0915282
0.0661808
0.0374231
0.00474316
-0.0325031
-0.0748139
-0.122163
-0.173687
-0.227468
-0.280544
-0.329068
-0.368777
-0.392661
-0.39749
-0.381497
-0.346586
-0.294799
-0.232943
0.0783641
0.106311
0.1346
0.161689
0.185612
0.204824
0.217492
0.222092
0.218993
0.208255
0.190486
0.166721
0.138224
0.106272
0.0719321
0.0359126
-0.00146066
-0.0401638
-0.0802924
-0.121773
-0.164092
-0.206085
-0.245886
-0.280983
-0.308539
-0.323496
-0.323663
-0.307903
-0.277858
-0.235115
-0.185314
0.066585
0.0909779
0.115922
0.140294
0.162331
0.180679
0.193621
0.199649
0.198928
0.191413
0.177591
0.158404
0.135082
0.108948
0.0812008
0.052741
0.0241055
-0.00451514
-0.0331661
-0.0619211
-0.0906645
-0.118897
-0.145652
-0.169483
-0.188659
-0.199932
-0.201754
-0.19323
-0.175377
-0.14902
-0.11821
0.018486
0.0276456
0.0383735
0.050645
0.0636518
0.0768352
0.0890274
0.0990207
0.106274
0.110348
0.11114
0.108876
0.104019
0.097159
0.0888532
0.0795038
0.0692895
0.0581633
0.0459184
0.0323204
0.0172625
0.000912219
-0.0162131
-0.033218
-0.0489501
-0.0614681
-0.0694452
-0.0719179
-0.0691687
-0.0612319
-0.0505347
-0.0498031
-0.0623339
-0.0717176
-0.0765513
-0.0762566
-0.0702857
-0.0590392
-0.043292
-0.0246457
-0.00417317
0.0170777
0.0381675
0.0582885
0.0767695
0.0930396
0.106591
0.11695
0.123685
0.126443
0.125012
0.119398
0.109895
0.0970979
0.0819044
0.0654099
0.0488885
0.033708
0.0210086
0.0110615
0.00435371
-0.000258145
-0.112624
-0.145079
-0.172784
-0.193081
-0.204075
-0.204234
-0.193254
-0.171529
-0.14174
-0.10567
-0.0653912
-0.0230942
0.0190623
0.0590871
0.0952524
0.126163
0.15078
0.168445
0.178893
0.182246
0.178992
0.169955
0.156224
0.139077
0.119864
0.0997178
0.0800526
0.0620436
0.0461076
0.0327927
0.0216609
-0.14524
-0.188008
-0.225006
-0.252963
-0.269225
-0.271793
-0.259956
-0.233919
-0.197077
-0.151772
-0.100855
-0.0474343
0.00536633
0.0546582
0.0979918
0.133515
0.160035
0.177057
0.18475
0.183876
0.175667
0.161685
0.143655
0.123316
0.102278
0.081759
0.0629822
0.0468303
0.0333821
0.0227675
0.0146396
-0.134082
-0.173381
-0.206897
-0.231673
-0.245109
-0.245456
-0.231998
-0.204959
-0.1678
-0.123074
-0.0738929
-0.0236514
0.0242769
0.0668421
0.101585
0.12684
0.141811
0.146591
0.142086
0.129861
0.111932
0.0905312
0.0678646
0.0459051
0.0262472
0.0100978
-0.00187376
-0.00944281
-0.0132459
-0.0138899
-0.0120845
-0.0820644
-0.105294
-0.123837
-0.135963
-0.139883
-0.134731
-0.120106
-0.0963593
-0.0662774
-0.0321631
0.00323154
0.0369611
0.0661811
0.0884482
0.101991
0.105904
0.100219
0.0858776
0.0646044
0.0386939
0.0107319
-0.0166987
-0.0412968
-0.061262
-0.0754162
-0.0828859
-0.0838527
-0.0789855
-0.0697628
-0.0575704
-0.0436505
-0.00668607
-0.00710606
-0.00483693
-5.50551e-06
0.00795555
0.0187162
0.0322719
0.0482393
0.0651224
0.0813375
0.0950557
0.104382
0.107589
0.103363
0.0910264
0.0706952
0.0433215
0.0106298
-0.0250521
-0.0610416
-0.0946071
-0.123278
-0.145114
-0.158892
-0.164182
-0.160778
-0.149788
-0.132753
-0.111819
-0.0889033
-0.0656584
0.0679309
0.0891508
0.110531
0.129904
0.14667
0.159419
0.167935
0.172108
0.17211
0.167462
0.157635
0.14211
0.120517
0.0927836
0.0592977
0.0210202
-0.0204907
-0.0631577
-0.104556
-0.142154
-0.173597
-0.196985
-0.211098
-0.215522
-0.210665
-0.19713
-0.17673
-0.151571
-0.124046
-0.0961673
-0.0696795
0.121117
0.156162
0.188658
0.214663
0.232854
0.241218
0.239749
0.229053
0.211095
0.186753
0.156955
0.12258
0.0844867
0.0435628
0.000831499
-0.0424601
-0.0847958
-0.124435
-0.15953
-0.188304
-0.209261
-0.221397
-0.224347
-0.218463
-0.204784
-0.18454
-0.159763
-0.132609
-0.105205
-0.0791813
-0.0560351
0.143213
0.181375
0.214316
0.2369
0.247687
0.244706
0.228662
0.201319
0.166373
0.126172
0.083064
0.0391222
-0.00393896
-0.0448
-0.0824595
-0.116124
-0.145096
-0.168718
-0.186378
-0.197563
-0.201954
-0.19954
-0.190698
-0.176231
-0.157342
-0.135392
-0.112018
-0.0888526
-0.0673113
-0.0483052
-0.0328776
0.137535
0.169596
0.193911
0.204815
0.20128
0.181937
0.148607
0.10451
0.0549007
0.00358308
-0.0458459
-0.0904318
-0.128055
-0.157527
-0.178511
-0.19134
-0.196788
-0.195865
-0.189646
-0.17916
-0.16534
-0.149033
-0.131024
-0.112081
-0.0929847
-0.0745379
-0.0574087
-0.0422313
-0.0294885
-0.0192651
-0.0121801
0.116537
0.137888
0.149198
0.144847
0.12448
0.0876392
0.0374243
-0.0214569
-0.0824125
-0.140339
-0.19064
-0.229807
-0.255703
-0.267693
-0.26653
-0.254075
-0.232915
-0.20597
-0.176121
-0.145913
-0.117351
-0.0918089
-0.0700386
-0.0522488
-0.0382531
-0.0276119
-0.0196365
-0.0137123
-0.00943055
-0.00619463
-0.00446454
0.0947466
0.106101
0.105541
0.0878469
0.0532984
0.00234651
-0.060769
-0.130115
-0.198049
-0.258474
-0.306111
-0.3372
-0.349846
-0.344171
-0.32214
-0.28718
-0.243633
-0.196175
-0.149255
-0.10661
-0.0709259
-0.0436733
-0.0251238
-0.014505
-0.0102936
-0.0103212
-0.0124153
-0.014719
-0.0162022
-0.0159059
-0.0145419
0.0821052
0.0879342
0.0807002
0.0557181
0.0136675
-0.0443479
-0.113345
-0.18667
-0.256032
-0.314784
-0.357357
-0.380022
-0.38128
-0.362008
-0.325232
-0.275651
-0.218956
-0.161092
-0.107545
-0.0627058
-0.0294415
-0.00888362
-0.000480515
-0.00224373
-0.0111951
-0.0232765
-0.0349588
-0.0433714
-0.0472471
-0.0456342
-0.0399049
0.0807476
0.086509
0.0791085
0.0543846
0.013131
-0.043263
-0.109609
-0.179161
-0.243511
-0.296013
-0.331257
-0.345829
-0.338717
-0.311428
-0.267728
-0.21309
-0.153936
-0.0968027
-0.0475326
-0.0105638
0.0115534
0.01837
0.0114351
-0.00603809
-0.0297546
-0.0539643
-0.0741048
-0.0866434
-0.0904463
-0.0848648
-0.0721941
0.0861109
0.0957226
0.0932979
0.0751373
0.0419441
-0.00494213
-0.0606596
-0.118977
-0.171971
-0.213572
-0.238978
-0.24537
-0.232285
-0.201698
-0.157737
-0.106109
-0.0533104
-0.00577804
0.0309409
0.0529065
0.0582636
0.0474298
0.0229346
-0.0109831
-0.0490502
-0.084318
-0.11161
-0.12711
-0.130071
-0.12029
-0.101026
0.0904646
0.104915
0.109559
0.101125
0.0801521
0.0477148
0.00793842
-0.0339252
-0.0710154
-0.0983141
-0.111992
-0.110033
-0.0925374
-0.0617678
-0.0218512
0.0217736
0.063107
0.0963891
0.116869
0.12147
0.109208
0.0813363
0.0411358
-0.00652283
-0.0558889
-0.0995238
-0.132102
-0.149882
-0.152581
-0.140426
-0.117358
0.087964
0.105634
0.116379
0.117369
0.109004
0.0920218
0.0696008
0.0457771
0.0259485
0.0138242
0.0120805
0.0218632
0.0425686
0.07184
0.105853
0.139811
0.168607
0.187514
0.192845
0.182504
0.156334
0.116195
0.0657326
0.0099476
-0.0454897
-0.0934035
-0.12876
-0.148158
-0.151723
-0.139957
-0.117129
0.0761269
0.0938581
0.107491
0.114753
0.115954
0.111559
0.10374
0.0953049
0.0900554
0.0903928
0.0978957
0.112961
0.13467
0.160814
0.188146
0.212787
0.230758
0.23852
0.233489
0.214456
0.181836
0.1377
0.0855503
0.0299362
-0.0241362
-0.0704716
-0.104731
-0.124136
-0.129007
-0.11995
-0.101042
0.0569556
0.0716313
0.0844706
0.0937687
0.0997928
0.102731
0.104002
0.105317
0.109019
0.116435
0.128303
0.144543
0.164185
0.185415
0.205766
0.222419
0.232581
0.23387
0.224667
0.204403
0.173717
0.134462
0.0895183
0.042493
-0.00273372
-0.0414718
-0.0704578
-0.0874698
-0.0929773
-0.087478
-0.0744161
0.0355853
0.0453785
0.0547748
0.0626037
0.0690826
0.0742185
0.0788059
0.0837828
0.0903432
0.0990797
0.110224
0.123521
0.138199
0.15301
0.166357
0.17648
0.181689
0.180594
0.172318
0.156657
0.134175
0.106193
0.0746647
0.0419801
0.0106679
-0.0163182
-0.0367952
-0.0493241
-0.0543093
-0.0519679
-0.0449312
-0.0402688
-0.0541348
-0.0682681
-0.0813996
-0.0923378
-0.0996637
-0.101991
-0.0978906
-0.0866111
-0.0673091
-0.0396439
-0.00392593
0.0387688
0.0865623
0.136835
0.186394
0.231741
0.269418
0.296395
0.310445
0.310459
0.296643
0.270514
0.234753
0.192846
0.148853
0.106915
0.0706223
0.0413487
0.0203207
0.00628775
-0.0697406
-0.0930755
-0.116378
-0.137365
-0.154361
-0.165494
-0.168652
-0.161765
-0.144131
-0.114704
-0.0731713
-0.0201466
0.0426539
0.11235
0.184988
0.255788
0.319539
0.371126
0.406121
0.421368
0.415465
0.389059
0.344829
0.287239
0.221965
0.155902
0.0954357
0.0459367
0.00917698
-0.0134738
-0.0242711
-0.100669
-0.133317
-0.165128
-0.193126
-0.21509
-0.228795
-0.231755
-0.221619
-0.198091
-0.160231
-0.10797
-0.0423384
0.0343307
0.118321
0.20464
0.28733
0.359949
0.416246
0.450907
0.460314
0.443162
0.400822
0.337296
0.258867
0.17332
0.0905416
0.018661
-0.0356349
-0.0705404
-0.0850045
-0.0827897
-0.119064
-0.156542
-0.192168
-0.222728
-0.2458
-0.259098
-0.260364
-0.247458
-0.220709
-0.179544
-0.124241
-0.0561622
0.0220346
0.106299
0.191282
0.270658
0.337637
0.385699
0.409419
0.405334
0.372622
0.313507
0.233179
0.139364
0.0413956
-0.0483018
-0.120734
-0.168795
-0.191052
-0.187294
-0.163083
-0.110312
-0.143921
-0.174662
-0.199951
-0.217778
-0.226362
-0.224219
-0.209957
-0.184446
-0.147568
-0.0998375
-0.0426175
0.0216607
0.0893729
0.155741
0.215098
0.261351
0.288679
0.29234
0.269561
0.220211
0.147212
0.0564496
-0.0436844
-0.143286
-0.228473
-0.290477
-0.322649
-0.324368
-0.296557
-0.246577
-0.0695222
-0.0890662
-0.105326
-0.117042
-0.123245
-0.123101
-0.116348
-0.102721
-0.0832273
-0.058062
-0.0276573
0.00710725
0.0446666
0.0825916
0.117528
0.145336
0.161446
0.161431
0.141724
0.10045
0.0380572
-0.0422766
-0.134711
-0.231155
-0.322224
-0.393969
-0.438754
-0.45105
-0.431144
-0.381008
-0.309251
-0.00571934
-0.00388884
0.000780623
0.00800485
0.0172989
0.0283231
0.0399479
0.0511884
0.0613517
0.0701823
0.0776646
0.0838191
0.0884284
0.0907847
0.0894977
0.0824728
0.067104
0.0406818
0.000960385
-0.0531237
-0.120876
-0.199456
-0.283866
-0.367267
-0.44178
-0.494857
-0.520576
-0.514847
-0.478693
-0.414713
-0.331795
0.0576335
0.080389
0.10512
0.130208
0.153804
0.174541
0.190127
0.198541
0.199635
0.193283
0.180028
0.160881
0.137012
0.109429
0.0786597
0.044571
0.00639989
-0.037017
-0.0868398
-0.14364
-0.206899
-0.274616
-0.343217
-0.40772
-0.462324
-0.496981
-0.507564
-0.491301
-0.449544
-0.384878
-0.305389
0.0926539
0.126971
0.162617
0.197394
0.228716
0.254707
0.272492
0.279505
0.275949
0.261815
0.238001
0.20614
0.168282
0.126543
0.0827165
0.0379816
-0.0071897
-0.052951
-0.0998235
-0.14825
-0.198167
-0.248625
-0.297623
-0.342126
-0.37844
-0.399491
-0.402596
-0.385882
-0.350542
-0.298538
-0.236234
0.080237
0.11072
0.142695
0.174425
0.203592
0.228529
0.246539
0.255129
0.254289
0.243885
0.224659
0.198118
0.166265
0.131282
0.0951611
0.0593881
0.0247928
-0.00845984
-0.0407192
-0.0725334
-0.104304
-0.135945
-0.166688
-0.195003
-0.218803
-0.233746
-0.237978
-0.229983
-0.210425
-0.180268
-0.143681
0.0204484
0.0318455
0.0459075
0.0623226
0.0800204
0.0982118
0.115053
0.128662
0.138123
0.142812
0.142689
0.138276
0.130508
0.120528
0.109429
0.0980145
0.0866585
0.0752759
0.0634044
0.0504031
0.0356994
0.0190451
0.000679793
-0.0185841
-0.0374611
-0.0535451
-0.0651994
-0.0708481
-0.0705121
-0.0641699
-0.0538863
-0.0653983
-0.0814337
-0.0929375
-0.0983165
-0.0968312
-0.0880658
-0.072649
-0.0515859
-0.0271715
-0.000829592
0.0261392
0.0526549
0.0778713
0.101149
0.12197
0.139857
0.154298
0.164737
0.170622
0.171489
0.167096
0.157542
0.143328
0.125381
0.104963
0.0835421
0.0628848
0.044741
0.0295254
0.0178502
0.00914747
-0.142764
-0.183538
-0.217933
-0.242697
-0.255389
-0.254546
-0.239664
-0.210942
-0.172046
-0.125286
-0.0733227
-0.0189495
0.0350987
0.0863069
0.1325
0.171936
0.20332
0.225836
0.239156
0.243429
0.239259
0.227668
0.210014
0.187883
0.162974
0.136624
0.110676
0.0868101
0.0654138
0.0470575
0.0317731
-0.178419
-0.230729
-0.275643
-0.309174
-0.327941
-0.330026
-0.314263
-0.280388
-0.232877
-0.174712
-0.109557
-0.0414476
0.0255438
0.0876264
0.141585
0.185015
0.216416
0.235242
0.241862
0.237444
0.223778
0.203071
0.177708
0.150024
0.122134
0.0955829
0.0718803
0.0521377
0.0361617
0.0238459
0.0149496
-0.154699
-0.199928
-0.23812
-0.265884
-0.279991
-0.27888
-0.261363
-0.227139
-0.180545
-0.124753
-0.0637134
-0.0018071
0.0565641
0.107385
0.147416
0.174512
0.187741
0.187425
0.17503
0.152943
0.124151
0.0918948
0.0593029
0.0290869
0.00334121
-0.0163683
-0.0294341
-0.0358449
-0.0368037
-0.0334975
-0.0270011
-0.0767875
-0.0982674
-0.114553
-0.124115
-0.12489
-0.116374
-0.0978812
-0.0693534
-0.0339572
0.00556686
0.0458403
0.0831544
0.113876
0.134856
0.143833
0.139747
0.122851
0.0947023
0.0579688
0.0161151
-0.0270216
-0.0676804
-0.102596
-0.129326
-0.146419
-0.152819
-0.149274
-0.137186
-0.1189
-0.0967041
-0.0726033
0.0302038
0.0408317
0.0536474
0.0675179
0.0828014
0.0986191
0.114989
0.131758
0.14775
0.161267
0.170253
0.17249
0.165929
0.14902
0.121065
0.0824642
0.0348084
-0.0192043
-0.0760155
-0.131583
-0.181855
-0.223247
-0.253051
-0.269717
-0.272948
-0.262749
-0.24132
-0.211402
-0.176243
-0.138866
-0.10186
0.13261
0.172761
0.211462
0.244806
0.271538
0.289569
0.298528
0.29844
0.290553
0.274695
0.250609
0.217986
0.176662
0.126834
0.0693213
0.00574175
-0.0614193
-0.128921
-0.193028
-0.249887
-0.295982
-0.328569
-0.34602
-0.348021
-0.335571
-0.309987
-0.274556
-0.232864
-0.188519
-0.144656
-0.103849
0.202378
0.260505
0.313404
0.35493
0.382833
0.394406
0.38952
0.369019
0.336626
0.293997
0.242835
0.184725
0.121169
0.0536879
-0.016012
-0.0858875
-0.153475
-0.215962
-0.270383
-0.313919
-0.34426
-0.359942
-0.360596
-0.347059
-0.321305
-0.285703
-0.243883
-0.199486
-0.155799
-0.115417
-0.0803223
0.227427
0.28838
0.340479
0.376271
0.393356
0.389182
0.364619
0.321998
0.267324
0.204199
0.13619
0.0664431
-0.00242736
-0.0683574
-0.129699
-0.185046
-0.23306
-0.272416
-0.301839
-0.320253
-0.326974
-0.321925
-0.305788
-0.280058
-0.246969
-0.209187
-0.169759
-0.131525
-0.0968523
-0.0673322
-0.044055
0.213923
0.265054
0.303974
0.322901
0.32
0.293563
0.246052
0.181748
0.108647
0.0322492
-0.0422733
-0.110673
-0.16988
-0.218098
-0.254663
-0.279772
-0.29415
-0.298784
-0.294732
-0.283037
-0.264724
-0.240872
-0.21269
-0.181585
-0.149161
-0.117309
-0.0876517
-0.0615537
-0.0401188
-0.0238039
-0.0129107
0.180391
0.215728
0.235858
0.233406
0.207464
0.157541
0.087919
0.00490666
-0.0818256
-0.165092
-0.23846
-0.297036
-0.337837
-0.359932
-0.364247
-0.353158
-0.329945
-0.298262
-0.261674
-0.2233
-0.185604
-0.150328
-0.118545
-0.0907839
-0.067195
-0.0478262
-0.0323268
-0.0202507
-0.0114448
-0.0054432
-0.00224287
0.147446
0.168451
0.171842
0.151016
0.105951
0.0373654
-0.0488617
-0.144752
-0.239325
-0.324107
-0.391828
-0.43734
-0.45809
-0.454281
-0.428595
-0.385636
-0.331163
-0.271298
-0.21178
-0.157356
-0.11138
-0.0756407
-0.0504291
-0.034777
-0.026832
-0.0240257
-0.0238832
-0.024192
-0.0238602
-0.0219526
-0.0188594
0.128481
0.141631
0.13575
0.105052
0.0500804
-0.0275587
-0.120976
-0.221239
-0.316558
-0.397768
-0.45726
-0.489995
-0.494027
-0.47066
-0.424096
-0.360748
-0.288281
-0.214602
-0.146893
-0.0907895
-0.0498446
-0.0252946
-0.0161759
-0.0196959
-0.031836
-0.047141
-0.061228
-0.0704786
-0.0733579
-0.0689837
-0.0588048
0.125504
0.138328
0.13214
0.101838
0.0481498
-0.0269037
-0.116197
-0.210723
-0.29858
-0.37065
-0.419574
-0.440784
-0.433028
-0.398505
-0.342457
-0.272394
-0.197014
-0.125058
-0.0642131
-0.0201675
0.00399965
0.00805823
-0.00555697
-0.0322447
-0.0660396
-0.0988836
-0.124968
-0.139787
-0.141876
-0.130821
-0.109543
0.131197
0.148808
0.1491
0.127526
0.0847255
0.0226828
-0.0519804
-0.131012
-0.203232
-0.26034
-0.295837
-0.305979
-0.290271
-0.251553
-0.195561
-0.130123
-0.064044
-0.00593209
0.0369262
0.059533
0.059786
0.0386851
7.32329e-05
-0.0499591
-0.104015
-0.152173
-0.187795
-0.206027
-0.205854
-0.18753
-0.155489
0.134463
0.157825
0.167084
0.158195
0.131614
0.0889828
0.0358721
-0.0208388
-0.0714973
-0.109274
-0.129017
-0.128083
-0.106739
-0.0681958
-0.0181668
0.0359085
0.08592
0.124191
0.144525
0.143101
0.119012
0.0744115
0.0141891
-0.0546674
-0.124068
-0.183295
-0.225514
-0.245996
-0.244341
-0.221432
-0.182797
0.127566
0.154225
0.170865
0.174013
0.16398
0.141939
0.112157
0.0798552
0.0525937
0.0353836
0.0317856
0.0432517
0.0688361
0.105218
0.147118
0.187994
0.220965
0.239768
0.239646
0.218108
0.175353
0.114347
0.0404705
-0.039112
-0.11641
-0.181025
-0.226494
-0.248542
-0.247347
-0.224185
-0.185096
0.107848
0.133487
0.153094
0.163937
0.166265
0.160849
0.150598
0.139095
0.131626
0.131399
0.140468
0.159266
0.186427
0.218848
0.252055
0.280767
0.299641
0.304023
0.290635
0.258151
0.207506
0.141907
0.0664957
-0.0122102
-0.0871454
-0.149289
-0.19306
-0.215013
-0.215607
-0.196219
-0.162547
0.0792268
0.0999069
0.117743
0.130767
0.139214
0.143429
0.145327
0.147069
0.151888
0.161527
0.176901
0.197799
0.2228
0.249342
0.274011
0.292958
0.302434
0.299314
0.281581
0.248715
0.201887
0.143943
0.0791189
0.0126074
-0.050082
-0.10207
-0.13915
-0.158493
-0.160829
-0.147306
-0.122652
0.0490122
0.0626607
0.0754921
0.0862609
0.0951468
0.102189
0.108493
0.115265
0.12414
0.135883
0.150741
0.168285
0.187379
0.206238
0.222618
0.234088
0.238355
0.233587
0.2187
0.19359
0.159238
0.117688
0.0718495
0.0252111
-0.0185835
-0.0551577
-0.0816031
-0.0960249
-0.0991353
-0.0916219
-0.0769562
-0.0148657
-0.0212093
-0.0285446
-0.0363736
-0.043879
-0.050058
-0.0533435
-0.0521632
-0.0449874
-0.0303595
-0.00726338
0.0246283
0.0647497
0.111519
0.16235
0.213802
0.26188
0.302456
0.331752
0.346843
0.346093
0.329446
0.298474
0.25623
0.20683
0.155263
0.106611
0.0651885
0.0326168
0.0103875
-0.00312066
-0.0405839
-0.0551533
-0.0705758
-0.0853864
-0.0983881
-0.108201
-0.112422
-0.10891
-0.0959835
-0.0718164
-0.0352298
0.0139792
0.074737
0.14451
0.219322
0.293977
0.3625
0.41877
0.457258
0.473799
0.466256
0.434954
0.382734
0.314704
0.237572
0.15978
0.0891656
0.0321299
-0.00911546
-0.0328895
-0.0419857
-0.0771569
-0.102534
-0.127714
-0.15047
-0.168983
-0.181481
-0.185238
-0.177804
-0.158015
-0.124144
-0.0752441
-0.0115095
0.0653649
0.151964
0.243168
0.332426
0.412296
0.475243
0.514577
0.525446
0.505678
0.456324
0.381699
0.289016
0.187496
0.0891748
0.00415659
-0.0597008
-0.0998994
-0.115051
-0.10966
-0.108887
-0.142732
-0.17478
-0.202335
-0.223214
-0.23562
-0.237003
-0.2252
-0.200043
-0.160343
-0.105645
-0.0365966
0.0446853
0.134367
0.226885
0.315225
0.391478
0.447706
0.476977
0.474491
0.438516
0.370984
0.277519
0.16699
0.0504429
-0.0571069
-0.144325
-0.202936
-0.230589
-0.226766
-0.197903
-0.11537
-0.149511
-0.18014
-0.204872
-0.221797
-0.229563
-0.226544
-0.211444
-0.185128
-0.147135
-0.097477
-0.0369766
0.0323751
0.107135
0.182329
0.25165
0.307948
0.344035
0.353698
0.332843
0.280434
0.199103
0.095181
-0.0217737
-0.140098
-0.243188
-0.319806
-0.362324
-0.369006
-0.340509
-0.285107
-0.084989
-0.107861
-0.126174
-0.13868
-0.144476
-0.143116
-0.134481
-0.118558
-0.0967841
-0.0692625
-0.0361202
0.00220099
0.0445739
0.0888482
0.131649
0.168426
0.193785
0.20215
0.188639
0.150133
0.0861714
-0.000453421
-0.103618
-0.214276
-0.321508
-0.408891
-0.466447
-0.487964
-0.472482
-0.421708
-0.345056
-0.0238026
-0.0258464
-0.0234268
-0.0167871
-0.00658393
0.00646804
0.0207249
0.0347872
0.0472753
0.0578509
0.0667123
0.0743297
0.0810477
0.0866718
0.0901107
0.0892269
0.080965
0.0617913
0.0283812
-0.0214611
-0.0879956
-0.168962
-0.259414
-0.351983
-0.437735
-0.502246
-0.537622
-0.539412
-0.507344
-0.443698
-0.357862
0.043823
0.0640597
0.0879308
0.113778
0.139393
0.163021
0.181524
0.19234
0.194587
0.187999
0.173348
0.152202
0.126492
0.0980291
0.068004
0.036639
0.00311793
-0.0342027
-0.0773171
-0.127831
-0.186253
-0.251419
-0.320223
-0.38769
-0.447565
-0.48873
-0.50559
-0.495258
-0.457829
-0.395451
-0.316287
0.0856139
0.119343
0.15586
0.192799
0.227074
0.256394
0.276888
0.2854
0.281504
0.265074
0.237303
0.200486
0.157588
0.111741
0.0656597
0.0211712
-0.0210054
-0.0612308
-0.100656
-0.140665
-0.182277
-0.225592
-0.269438
-0.311275
-0.347505
-0.370787
-0.377487
-0.365723
-0.335556
-0.288361
-0.230135
0.0780365
0.109138
0.142876
0.177274
0.2095
0.237472
0.257616
0.266896
0.264837
0.251247
0.227198
0.194864
0.157163
0.117306
0.0782409
0.0421827
0.0103264
-0.0172246
-0.0413036
-0.0632926
-0.0846413
-0.106376
-0.128731
-0.15095
-0.171395
-0.186039
-0.192495
-0.189209
-0.175897
-0.152836
-0.123476
0.0193107
0.0313077
0.04678
0.0651898
0.0851127
0.105359
0.123603
0.137554
0.145989
0.148281
0.14467
0.136209
0.124548
0.111624
0.0992712
0.0888591
0.0810527
0.0757227
0.0720258
0.0686459
0.0641357
0.0572886
0.0474319
0.0346173
0.0196135
0.00426441
-0.00951708
-0.0200122
-0.0265318
-0.0283714
-0.0267368
-0.0674096
-0.0834823
-0.0945541
-0.0991928
-0.0967523
-0.0871875
-0.0710575
-0.0495893
-0.0252344
0.000613566
0.0268192
0.0525823
0.0774169
0.101064
0.123349
0.144035
0.162695
0.178678
0.19115
0.19921
0.202062
0.199209
0.190585
0.176629
0.158271
0.136507
0.113258
0.0904979
0.0690686
0.0501117
0.0337992
-0.143209
-0.183929
-0.218198
-0.242907
-0.255476
-0.254795
-0.239757
-0.210591
-0.170931
-0.123022
-0.069482
-0.013094
0.0433862
0.0973798
0.146623
0.189264
0.223883
0.249533
0.265755
0.272567
0.270454
0.260333
0.243473
0.221394
0.195764
0.167743
0.139264
0.112185
0.0870032
0.0645166
0.0451473
-0.170682
-0.220854
-0.264068
-0.296619
-0.314904
-0.317378
-0.301929
-0.268163
-0.220248
-0.161033
-0.0941876
-0.0239116
0.0454377
0.109693
0.165254
0.209384
0.240366
0.257582
0.261492
0.253495
0.235716
0.21075
0.181357
0.150186
0.119575
0.0911851
0.0665043
0.0465953
0.031037
0.0195493
0.0118067
-0.130882
-0.169516
-0.202192
-0.226123
-0.238001
-0.236694
-0.220016
-0.187425
-0.142572
-0.0883699
-0.0287075
0.0318726
0.0886333
0.137111
0.173628
0.195708
0.202297
0.193839
0.17218
0.140296
0.101897
0.0609748
0.0213302
-0.0138206
-0.0421028
-0.0617315
-0.0723529
-0.0743995
-0.069636
-0.059832
-0.0466016
-0.0317764
-0.0406746
-0.0461603
-0.0477772
-0.043696
-0.0339295
-0.017011
0.00742614
0.0373353
0.0704135
0.103525
0.132976
0.154968
0.166082
0.163812
0.146995
0.116028
0.0728886
0.0209377
-0.0354734
-0.0915405
-0.142595
-0.184652
-0.214838
-0.231618
-0.233912
-0.223079
-0.201445
-0.172209
-0.138563
-0.103345
0.0957152
0.124697
0.153442
0.179257
0.201892
0.219878
0.233638
0.243384
0.249459
0.250796
0.245824
0.23262
0.209277
0.174308
0.127119
0.0683629
0.000121891
-0.0741587
-0.149962
-0.222176
-0.285709
-0.33613
-0.3702
-0.386248
-0.384294
-0.364783
-0.330951
-0.286899
-0.236943
-0.185169
-0.135043
0.211764
0.273986
0.331872
0.379594
0.415001
0.435392
0.440429
0.430583
0.408895
0.375989
0.33232
0.278151
0.213772
0.139786
0.0574632
-0.0309877
-0.122288
-0.212206
-0.295894
-0.368386
-0.425214
-0.463002
-0.479926
-0.475976
-0.452937
-0.413162
-0.361356
-0.30274
-0.242087
-0.183572
-0.130437
0.284677
0.365463
0.437911
0.49383
0.52997
0.543071
0.532804
0.500588
0.452046
0.389739
0.316232
0.233858
0.144781
0.0511357
-0.0447111
-0.139945
-0.23117
-0.314509
-0.385884
-0.441462
-0.478168
-0.494186
-0.489293
-0.465011
-0.424479
-0.371629
-0.311731
-0.250111
-0.191189
-0.138422
-0.0940835
0.302846
0.384079
0.453332
0.50123
0.524475
0.520101
0.488745
0.433492
0.362209
0.279457
0.189714
0.0969228
0.00438662
-0.0851983
-0.169538
-0.246501
-0.313902
-0.369473
-0.410996
-0.436579
-0.445002
-0.436071
-0.410843
-0.371701
-0.322203
-0.266849
-0.21032
-0.156971
-0.110153
-0.0720668
-0.0436759
0.276549
0.343868
0.395947
0.423383
0.423687
0.394923
0.339466
0.262552
0.173929
0.0800796
-0.0129395
-0.100154
-0.177926
-0.243997
-0.297277
-0.337495
-0.364818
-0.379589
-0.38221
-0.373159
-0.353127
-0.323199
-0.285005
-0.240798
-0.193381
-0.146399
-0.102867
-0.0653452
-0.0356981
-0.0147534
-0.00237635
0.229874
0.277292
0.306581
0.309103
0.283569
0.22946
0.151189
0.0562086
-0.0441581
-0.141731
-0.229249
-0.30122
-0.354293
-0.387356
-0.401248
-0.398264
-0.381528
-0.354444
-0.320253
-0.281761
-0.241223
-0.200375
-0.16056
-0.122884
-0.0883254
-0.058252
-0.0332928
-0.0138362
-0.000246869
0.00771557
0.0105853
0.187766
0.218061
0.227889
0.209695
0.163272
0.0894754
-0.00549354
-0.112388
-0.218623
-0.314719
-0.392629
-0.446737
-0.47433
-0.475709
-0.453822
-0.413587
-0.361016
-0.302356
-0.24333
-0.188556
-0.141213
-0.102952
-0.0740413
-0.053661
-0.0402725
-0.0319447
-0.0266903
-0.0228366
-0.0196029
-0.016268
-0.0128488
0.164923
0.186316
0.185894
0.157115
0.100421
0.0176582
-0.083887
-0.19398
-0.299246
-0.389517
-0.456461
-0.49467
-0.502194
-0.480651
-0.434778
-0.371603
-0.29935
-0.226328
-0.159907
-0.105684
-0.06698
-0.0446848
-0.0374527
-0.0421632
-0.0545704
-0.0690846
-0.081347
-0.0881109
-0.0880237
-0.0805324
-0.0670836
0.161567
0.182815
0.182428
0.154644
0.100075
0.0210084
-0.0750838
-0.177968
-0.274211
-0.353753
-0.408583
-0.433841
-0.428373
-0.394814
-0.33908
-0.269449
-0.195327
-0.125982
-0.0693597
-0.0310911
-0.0139013
-0.0174358
-0.0385331
-0.0718387
-0.1107
-0.146223
-0.172267
-0.184662
-0.18209
-0.164661
-0.135781
0.166977
0.193394
0.200217
0.182278
0.140053
0.0757619
-0.00377485
-0.0892495
-0.16811
-0.231263
-0.271674
-0.285403
-0.272117
-0.23513
-0.180875
-0.11795
-0.055861
-0.00371412
0.0310063
0.0434621
0.0320647
-0.00138399
-0.0520436
-0.112764
-0.175148
-0.227925
-0.263915
-0.278652
-0.271315
-0.242894
-0.198786
0.167231
0.199063
0.215065
0.21062
0.185991
0.142989
0.0872083
0.0263507
-0.0288541
-0.0710038
-0.0945926
-0.0968987
-0.078406
-0.0427886
0.0036103
0.0526827
0.0957455
0.124763
0.133484
0.11839
0.0792351
0.0191249
-0.0559012
-0.137644
-0.216879
-0.281274
-0.323391
-0.33897
-0.327891
-0.291928
-0.237942
0.153845
0.187632
0.210321
0.217974
0.210734
0.189874
0.159541
0.12553
0.0960969
0.0765634
0.0706306
0.0796875
0.102516
0.135357
0.172401
0.206587
0.230635
0.2381
0.22433
0.187268
0.127871
0.0501196
-0.0394235
-0.132373
-0.219613
-0.289106
-0.333821
-0.349993
-0.338168
-0.300574
-0.244743
0.125626
0.156372
0.180594
0.195261
0.200512
0.197157
0.187919
0.176734
0.16921
0.168631
0.177003
0.194579
0.219684
0.248822
0.277095
0.298856
0.308528
0.301426
0.274489
0.226889
0.160319
0.0789469
-0.0110006
-0.101912
-0.185729
-0.25197
-0.29458
-0.310641
-0.300975
-0.267856
-0.218336
0.0888878
0.112584
0.133353
0.149063
0.159926
0.166306
0.169921
0.173122
0.179194
0.189807
0.205722
0.226493
0.250397
0.274546
0.295209
0.308299
0.309948
0.297087
0.267949
0.222475
0.162489
0.0916346
0.0150249
-0.0612769
-0.130983
-0.186078
-0.222033
-0.236364
-0.23019
-0.205355
-0.167679
0.0530672
0.068178
0.082549
0.0949128
0.105458
0.114226
0.122192
0.130639
0.141135
0.154327
0.170293
0.18839
0.207238
0.224808
0.23864
0.246151
0.244991
0.233396
0.210485
0.176498
0.13289
0.0822708
0.0281648
-0.025336
-0.074051
-0.112861
-0.138594
-0.149534
-0.146763
-0.131453
-0.107778
0.0356678
0.0446572
0.0514457
0.0551558
0.0556495
0.0531702
0.0488283
0.0441642
0.0417249
0.0436866
0.0520073
0.0680734
0.0923853
0.124322
0.162053
0.202626
0.242247
0.276707
0.301932
0.314554
0.312452
0.295134
0.26386
0.221529
0.172266
0.121387
0.074219
0.0352519
0.00605562
-0.0118245
-0.0204826
0.0229048
0.0277634
0.0302188
0.0300579
0.0272396
0.0223591
0.0171029
0.0133961
0.0142651
0.0224615
0.0403969
0.0696736
0.11063
0.162001
0.2208
0.282437
0.341135
0.390582
0.424752
0.438797
0.429857
0.397635
0.344556
0.275574
0.197503
0.119369
0.0494305
-0.00551457
-0.0432348
-0.0619353
-0.0649891
-0.0143908
-0.0204047
-0.0275946
-0.0353999
-0.0433272
-0.0503066
-0.0546559
-0.0541268
-0.0462641
-0.0283967
0.00173287
0.045448
0.102602
0.171177
0.247124
0.324514
0.396042
0.453843
0.49053