# vtk DataFile Version 2.0
Func
ASCII
DATASET RECTILINEAR_GRID
DIMENSIONS 31 31 31
X_COORDINATES 31 double
-9.67742
-9.03226
-8.3871
-7.74194
-7.09677
-6.45161
-5.80645
-5.16129
-4.51613
-3.87097
-3.22581
-2.58065
-1.93548
-1.29032
-0.645161
0
0.645161
1.29032
1.93548
2.58065
3.22581
3.87097
4.51613
5.16129
5.80645
6.45161
7.09677
7.74194
8.3871
9.03226
9.67742
Y_COORDINATES 31 double
-9.67742
-9.03226
-8.3871
-7.74194
-7.09677
-6.45161
-5.80645
-5.16129
-4.51613
-3.87097
-3.22581
-2.58065
-1.93548
-1.29032
-0.645161
0
0.645161
1.29032
1.93548
2.58065
3.22581
3.87097
4.51613
5.16129
5.80645
6.45161
7.09677
7.74194
8.3871
9.03226
9.67742
Z_COORDINATES 31 double
-9.67742
-9.03226
-8.3871
-7.74194
-7.09677
-6.45161
-5.80645
-5.16129
-4.51613
-3.87097
-3.22581
-2.58065
-1.93548
-1.29032
-0.645161
0
0.645161
1.29032
1.93548
2.58065
3.22581
3.87097
4.51613
5.16129
5.80645
6.45161
7.09677
7.74194
8.3871
9.03226
9.67742
POINT_DATA 29791
SCALARS data double 1
LOOKUP_TABLE default
-0.00266774
-0.000804314
0.00267223
0.00866508
0.0172975
0.0287454
0.0426343
0.0582476
0.0746778
0.090875
0.105688
0.117991
0.126801
0.131396
0.131396
0.126811
0.118046
0.105851
0.0912365
0.0753547
0.0593673
0.0443169
0.031025
0.0200242
0.011543
0.00551092
0.00165353
-0.000482633
-0.00137948
-0.00150684
-0.00116502
-0.0175378
-0.0195932
-0.0192973
-0.0150951
-0.00658888
0.00670532
0.0244111
0.0455779
0.0687605
0.0923843
0.114679
0.133877
0.148408
0.157084
0.159245
0.154836
0.144413
0.129077
0.110329
0.0898829
0.0694519
0.0505433
0.0342996
0.0213969
0.0120318
0.00589372
0.00243774
0.00090814
0.000554819
0.000677301
0.000961539
-0.04161
-0.051104
-0.0577526
-0.0593069
-0.0549432
-0.0437376
-0.0259505
-0.00257561
0.0244266
0.0530702
0.0810663
0.106088
0.126033
0.139278
0.144882
0.142696
0.13337
0.118263
0.099253
0.0784738
0.0580298
0.0397215
0.0248376
0.0140312
0.00731889
0.00398845
0.00316648
0.00373803
0.00475682
0.00539635
0.00542317
-0.068987
-0.0876338
-0.103357
-0.113317
-0.116232
-0.110747
-0.0968627
-0.0754586
-0.0488626
-0.0192693
0.0107305
0.0384633
0.0614851
0.0778943
0.086571
0.0873146
0.0808493
0.068708
0.0530005
0.0360909
0.0202512
0.00733418
-0.00146371
-0.00573137
-0.00581623
-0.002993
0.00143672
0.00598561
0.00957011
0.0113225
0.0112318
-0.0891578
-0.115223
-0.138755
-0.15663
-0.167266
-0.16901
-0.161618
-0.145768
-0.123894
-0.0981604
-0.0711712
-0.0456363
-0.0240319
-0.00826247
0.000596941
0.00244566
-0.0018504
-0.0106
-0.021557
-0.0322901
-0.0405714
-0.044735
-0.0439191
-0.0381802
-0.0284195
-0.0166186
-0.00461704
0.00567525
0.0130886
0.0167476
0.0169972
-0.092053
-0.120291
-0.146813
-0.168687
-0.184344
-0.192126
-0.191663
-0.183454
-0.169712
-0.152348
-0.133679
-0.116104
-0.101767
-0.0922241
-0.0881966
-0.089443
-0.0947932
-0.102322
-0.10966
-0.114395
-0.114493
-0.108665
-0.0965926
-0.0790029
-0.0575323
-0.0350065
-0.0139363
0.00327966
0.0154049
0.0215551
0.0225261
-0.0727977
-0.0962098
-0.119119
-0.139313
-0.155617
-0.166726
-0.172326
-0.172801
-0.16979
-0.164736
-0.15937
-0.155425
-0.154329
-0.156921
-0.163234
-0.172417
-0.182811
-0.192158
-0.197953
-0.197876
-0.190218
-0.17424
-0.150356
-0.120155
-0.0861729
-0.0522165
-0.0215801
0.00280378
0.0196607
0.0281071
0.0295235
-0.0334625
-0.0455861
-0.0586703
-0.0716851
-0.0841812
-0.0955247
-0.105623
-0.114808
-0.123847
-0.133546
-0.144808
-0.158412
-0.174766
-0.193688
-0.214267
-0.234842
-0.253128
-0.266481
-0.272278
-0.268368
-0.253494
-0.227623
-0.192061
-0.149402
-0.103199
-0.0583641
-0.0190155
0.0113978
0.0316322
0.0408677
0.0412002
0.0174868
0.0204752
0.0209722
0.0185559
0.0127788
0.00341991
-0.00973127
-0.0269684
-0.0480151
-0.0729333
-0.101654
-0.133835
-0.1687
-0.204903
-0.240478
-0.272895
-0.299237
-0.316521
-0.322095
-0.314099
-0.291865
-0.25619
-0.209382
-0.155113
-0.0979775
-0.0440563
0.00178689
0.0357022
0.0565973
0.0638524
0.0603951
0.068542
0.0868814
0.101378
0.110162
0.111922
0.105579
0.090635
0.0668628
0.0355702
-0.00255911
-0.046489
-0.0947773
-0.145497
-0.196204
-0.243964
-0.285491
-0.317375
-0.336437
-0.34014
-0.327042
-0.297154
-0.252153
-0.195338
-0.131392
-0.0658514
-0.00588999
0.0430954
0.0770557
0.0951888
0.0972397
0.087003
0.108996
0.139658
0.165568
0.183691
0.192062
0.188905
0.173523
0.145783
0.107808
0.0608927
0.00685556
-0.0519833
-0.1128
-0.172319
-0.226914
-0.272806
-0.30633
-0.324305
-0.324448
-0.305798
-0.269028
-0.216588
-0.152588
-0.0824821
-0.0124625
0.0494698
0.0977061
0.128245
0.140667
0.135195
0.116367
0.131907
0.169831
0.202753
0.226961
0.240151
0.240116
0.226057
0.19792
0.15825
0.10868
0.0514619
-0.0106042
-0.0742219
-0.135706
-0.191131
-0.236567
-0.268356
-0.28349
-0.279998
-0.257339
-0.216667
-0.160915
-0.0946246
-0.0235894
0.0457835
0.105162
0.149089
0.17384
0.179362
0.166326
0.13969
0.135186
0.174791
0.209902
0.236714
0.252908
0.256138
0.245569
0.22113
0.185295
0.139665
0.0864743
0.0285058
-0.0309769
-0.0883582
-0.139835
-0.181651
-0.210376
-0.223256
-0.218575
-0.196012
-0.156857
-0.104073
-0.0421004
0.0234912
0.0866208
0.139294
0.176542
0.195066
0.195027
0.177338
0.146871
0.120905
0.157278
0.190373
0.216833
0.234596
0.241429
0.236467
0.219475
0.192361
0.156303
0.11306
0.0649159
0.0146233
-0.0347023
-0.0797305
-0.117127
-0.143811
-0.157267
-0.155878
-0.13924
-0.108357
-0.0656983
-0.0150323
0.0388799
0.0908173
0.133843
0.163714
0.177611
0.17565
0.158643
0.13078
0.0936054
0.123126
0.151071
0.174961
0.193161
0.203741
0.205769
0.19869
0.183457
0.160512
0.130786
0.0956928
0.0571327
0.017423
-0.020803
-0.0547669
-0.0817654
-0.099448
-0.106106
-0.10096
-0.0843491
-0.0578038
-0.0239471
0.0137296
0.0512748
0.0834087
0.106733
0.118882
0.119644
0.10937
0.0910291
0.0585723
0.0789981
0.0997165
0.11939
0.136888
0.150703
0.159801
0.163204
0.160708
0.151863
0.136592
0.115274
0.0887975
0.0585612
0.02642
-0.00543628
-0.0346649
-0.0590062
-0.0765396
-0.0859392
-0.0866681
-0.0790861
-0.0644293
-0.0446904
-0.0223562
-0.000719361
0.0176841
0.0308827
0.0381455
0.039118
0.0352207
0.020659
0.0309286
0.0431877
0.0573393
0.0727603
0.0884369
0.103231
0.115746
0.124634
0.128581
0.126543
0.117902
0.10258
0.0810958
0.0545648
0.0246152
-0.0067559
-0.0373791
-0.0651358
-0.0881813
-0.105141
-0.115248
-0.118401
-0.115143
-0.106541
-0.0939134
-0.078977
-0.0633444
-0.0482857
-0.0348797
-0.0232925
-0.0161625
-0.0161651
-0.0129229
-0.00533377
0.00644557
0.0219292
0.0399336
0.0587471
0.0760882
0.0899846
0.0986396
0.100654
0.0951777
0.0820151
0.0616473
0.035187
0.00426067
-0.0291485
-0.0628883
-0.0948208
-0.123005
-0.14585
-0.16222
-0.171494
-0.173563
-0.168088
-0.15603
-0.138621
-0.117505
-0.0942663
-0.0704037
-0.0487142
-0.0582939
-0.0639596
-0.0635667
-0.0568732
-0.0438339
-0.0255774
-0.00394903
0.0181757
0.0384752
0.0547288
0.0650734
0.0681702
0.0633242
0.0505213
0.0303979
0.00414704
-0.026601
-0.0599226
-0.093735
-0.125944
-0.154578
-0.17792
-0.194598
-0.203677
-0.203659
-0.194805
-0.1779
-0.15467
-0.126837
-0.096778
-0.0742695
-0.0919206
-0.105589
-0.112343
-0.111633
-0.102921
-0.087173
-0.0661667
-0.0429815
-0.0199507
0.00063596
0.016793
0.0269904
0.0302645
0.0262467
0.0151369
-0.00237143
-0.0251715
-0.0518352
-0.0806867
-0.109893
-0.137555
-0.161822
-0.180995
-0.193665
-0.197683
-0.192672
-0.178902
-0.157877
-0.131081
-0.101261
-0.0902035
-0.113521
-0.133308
-0.146199
-0.151451
-0.148133
-0.136977
-0.119525
-0.098686
-0.0765099
-0.0550363
-0.0360656
-0.0210459
-0.0109921
-0.00648192
-0.00768772
-0.0144343
-0.0262393
-0.0423465
-0.0617331
-0.0831256
-0.10503
-0.125808
-0.143757
-0.157273
-0.163953
-0.162874
-0.153774
-0.137722
-0.115731
-0.0904894
-0.0939039
-0.119508
-0.142438
-0.159326
-0.169391
-0.171484
-0.166096
-0.154426
-0.138902
-0.121066
-0.102459
-0.0844484
-0.0681632
-0.0544668
-0.0439837
-0.037143
-0.0342216
-0.0353448
-0.0404619
-0.0492832
-0.06122
-0.0753451
-0.0904158
-0.104927
-0.11727
-0.125008
-0.126819
-0.121981
-0.111075
-0.0946121
-0.0749535
-0.0830689
-0.106661
-0.128729
-0.146379
-0.158993
-0.165443
-0.166041
-0.161616
-0.153858
-0.143662
-0.131894
-0.11929
-0.106461
-0.0939219
-0.0821559
-0.0716764
-0.0630558
-0.0568936
-0.0537386
-0.0539618
-0.0576266
-0.0643831
-0.073439
-0.0835791
-0.0933105
-0.100255
-0.102893
-0.100194
-0.0923449
-0.0794958
-0.063586
-0.0566438
-0.0733893
-0.0899594
-0.104393
-0.116453
-0.125309
-0.131209
-0.134637
-0.136358
-0.136543
-0.135263
-0.13248
-0.128119
-0.122159
-0.114746
-0.10627
-0.0973858
-0.0889606
-0.0819517
-0.0772271
-0.0753793
-0.0765648
-0.0804269
-0.0860836
-0.0922494
-0.0966585
-0.0978113
-0.0945634
-0.0868808
-0.0747587
-0.0597347
-0.016094
-0.0214175
-0.0280172
-0.0352081
-0.0433437
-0.0521421
-0.0619044
-0.072836
-0.0846514
-0.096773
-0.108423
-0.118701
-0.126728
-0.131806
-0.133571
-0.132098
-0.127919
-0.121953
-0.115364
-0.109338
-0.10486
-0.102507
-0.102335
-0.103833
-0.106013
-0.106815
-0.10494
-0.0993148
-0.0898398
-0.076513
-0.0605346
0.033843
0.0431758
0.0498015
0.0529761
0.0516238
0.045309
0.0335913
0.0164749
-0.00466511
-0.0285364
-0.0535257
-0.077863
-0.099835
-0.118004
-0.131406
-0.139682
-0.143094
-0.14246
-0.138991
-0.134056
-0.128925
-0.124539
-0.121354
-0.119274
-0.117695
-0.114906
-0.109922
-0.101854
-0.0906181
-0.0762531
-0.0596655
0.0835066
0.107828
0.12823
0.142683
0.149408
0.14724
0.135583
0.114584
0.0865851
0.0534678
0.0175435
-0.0186853
-0.052787
-0.0826712
-0.10682
-0.124437
-0.135476
-0.140571
-0.140885
-0.137863
-0.132972
-0.127451
-0.122132
-0.117338
-0.112897
-0.107596
-0.100786
-0.0917995
-0.0805717
-0.0671182
-0.0520951
0.122407
0.158668
0.190268
0.21421
0.228204
0.230508
0.220447
0.198262
0.166987
0.128886
0.0867189
0.0434506
0.00196463
-0.0352339
-0.0662624
-0.0900205
-0.106216
-0.115312
-0.118377
-0.116859
-0.112327
-0.10622
-0.0996625
-0.0933321
-0.0874447
-0.0813605
-0.0747001
-0.0669937
-0.0581454
-0.0480561
-0.0371152
0.138705
0.180118
0.216679
0.245149
0.263065
0.268585
0.260919
0.240389
0.210268
0.17289
0.131066
0.0877983
0.0459943
0.00818385
-0.0237109
-0.048523
-0.0658621
-0.0760699
-0.0800894
-0.0792657
-0.0751159
-0.0691035
-0.0624556
-0.0560349
-0.0502982
-0.0450997
-0.0402352
-0.035353
-0.0303159
-0.0248716
-0.0191491
0.127378
0.165747
0.19983
0.226689
0.244184
0.250439
0.24512
0.228483
0.203475
0.172162
0.136993
0.100557
0.0653407
0.033486
0.00661456
-0.0142907
-0.0288959
-0.0374777
-0.0408169
-0.0400408
-0.0364389
-0.0312827
-0.0256743
-0.0204367
-0.0160698
-0.0127149
-0.0102291
-0.00839271
-0.00699527
-0.00570092
-0.00445844
0.0944759
0.122978
0.148413
0.168508
0.181805
0.18677
0.183299
0.171789
0.154366
0.132555
0.108133
0.0829429
0.0587315
0.0369753
0.0187675
0.00474852
-0.00489391
-0.0103916
-0.0123186
-0.0114834
-0.00880313
-0.00518184
-0.0014083
0.00191716
0.00441677
0.00589564
0.00643894
0.00622295
0.0054498
0.00439188
0.00322791
-0.00594487
-0.00449912
-0.000785535
0.00623335
0.0168531
0.0314165
0.0494077
0.0698687
0.0915317
0.112909
0.132352
0.148229
0.159112
0.163952
0.162215
0.153959
0.139836
0.121031
0.0991158
0.0758696
0.0530659
0.0322684
0.0146708
0.000995199
-0.00853009
-0.0140989
-0.0162973
-0.0159924
-0.014021
-0.0111742
-0.00799089
-0.0277971
-0.0322897
-0.0335189
-0.02957
-0.0197143
-0.00317494
0.0195613
0.0472534
0.0778688
0.109182
0.138661
0.163757
0.182192
0.192246
0.192984
0.18438
0.16733
0.143552
0.115364
0.0853932
0.05624
0.0301602
0.00881541
-0.00687826
-0.01677
-0.0214258
-0.0218848
-0.0195332
-0.0156322
-0.0113371
-0.00728691
-0.0625302
-0.0777503
-0.0889725
-0.0932712
-0.0892922
-0.0756899
-0.0527446
-0.021696
0.0146375
0.0534149
0.0913247
0.124969
0.15126
0.167816
0.173271
0.167454
0.151412
0.12727
0.0979416
0.0667211
0.036841
0.0110392
-0.00876473
-0.0216598
-0.0277488
-0.0281852
-0.0244926
-0.0186332
-0.0122061
-0.00659545
-0.00240144
-0.101963
-0.130157
-0.15409
-0.169896
-0.175555
-0.169194
-0.150667
-0.121016
-0.0836872
-0.0418999
0.000501664
0.0395131
0.0714513
0.0934368
0.103774
0.102181
0.0898061
0.0690597
0.0432568
0.0161171
-0.00877751
-0.0285018
-0.0411661
-0.0461229
-0.0439397
-0.0365577
-0.026083
-0.0150115
-0.00521124
0.00184299
0.00576488
-0.131833
-0.170599
-0.205422
-0.231851
-0.247419
-0.249868
-0.238659
-0.214553
-0.181281
-0.142145
-0.101163
-0.0625571
-0.0302238
-0.00720017
0.0047598
0.00543527
-0.00385353
-0.0204503
-0.0407772
-0.0609107
-0.0771968
-0.0868274
-0.0882436
-0.0813321
-0.0673435
-0.049172
-0.0296128
-0.0117411
0.00241214
0.0113522
0.015103
-0.138306
-0.180484
-0.219579
-0.251185
-0.272798
-0.282114
-0.278388
-0.262178
-0.23705
-0.206099
-0.173127
-0.142127
-0.116737
-0.0997004
-0.0924343
-0.0947933
-0.105087
-0.120328
-0.136703
-0.150209
-0.157318
-0.155583
-0.144037
-0.123349
-0.0956641
-0.0649856
-0.0349456
-0.00926581
0.00991362
0.0211039
0.0248432
-0.114733
-0.150876
-0.185349
-0.214527
-0.236379
-0.248957
-0.251579
-0.244739
-0.231313
-0.213886
-0.195625
-0.179799
-0.169268
-0.165976
-0.170562
-0.182169
-0.198506
-0.216151
-0.23107
-0.239302
-0.237645
-0.224264
-0.199044
-0.163683
-0.121429
-0.077556
-0.0366558
-0.00313563
0.0208202
0.0337711
0.0369191
-0.0637695
-0.085178
-0.106746
-0.126294
-0.142711
-0.154761
-0.162072
-0.165183
-0.165812
-0.165766
-0.16721
-0.172263
-0.182558
-0.198817
-0.220539
-0.245885
-0.271804
-0.294393
-0.309459
-0.313229
-0.303039
-0.277907
-0.238808
-0.188679
-0.132028
-0.0755618
-0.0248612
0.0150265
0.0419701
0.054681
0.0552043
0.00335044
0.00183523
-0.00187694
-0.00745764
-0.0149595
-0.0240817
-0.0348668
-0.0479165
-0.0634844
-0.0824018
-0.105573
-0.133684
-0.166866
-0.204379
-0.244412
-0.28406
-0.319518
-0.346491
-0.360795
-0.359061
-0.339399
-0.301901
-0.248815
-0.184443
-0.114606
-0.047539
0.0103202
0.0534691
0.0799751
0.0888924
0.083301
0.0713718
0.0901639
0.104832
0.113824
0.115938
0.110516
0.0971357
0.0752113
0.0459941
0.00969446
-0.0332702
-0.0821069
-0.135429
-0.191069
-0.245987
-0.296355
-0.337798
-0.36586
-0.376595
-0.367265
-0.336935
-0.286885
-0.220677
-0.143928
-0.0636505
0.0104681
0.0714408
0.113613
0.135409
0.136442
0.120936
0.126144
0.161387
0.19107
0.212101
0.222381
0.220446
0.205628
0.177457
0.138429
0.0896715
0.0327369
-0.0303359
-0.0969188
-0.163723
-0.226812
-0.281763
-0.323955
-0.349044
-0.353544
-0.335475
-0.294881
-0.234141
-0.15793
-0.0728859
0.0131367
0.0893493
0.148651
0.18559
0.199052
0.189343
0.161734
0.158473
0.203689
0.242746
0.271622
0.287715
0.289021
0.274775
0.24465
0.201872
0.148146
0.0857392
0.0174496
-0.0533692
-0.122827
-0.18658
-0.24004
-0.278683
-0.298508
-0.296583
-0.271631
-0.224464
-0.1582
-0.0781507
0.00857513
0.0938581
0.166475
0.21968
0.248532
0.252363
0.232116
0.193721
0.165471
0.213517
0.255838
0.288211
0.307949
0.312805
0.302002
0.275272
0.235881
0.185628
0.126904
0.0626326
-0.00375135
-0.0683606
-0.126968
-0.175231
-0.208983
-0.224668
-0.219824
-0.193609
-0.147152
-0.0837198
-0.00856537
0.0714725
0.148721
0.212447
0.256647
0.277069
0.273335
0.246727
0.203167
0.149559
0.194119
0.234399
0.266651
0.288454
0.29759
0.293253
0.275049
0.245584
0.206211
0.158835
0.105864
0.050197
-0.00482758
-0.0555381
-0.0981274
-0.128919
-0.144752
-0.143402
-0.124043
-0.0875519
-0.0366491
0.0242325
0.0892912
0.152003
0.203126
0.237636
0.251985
0.245813
0.220277
0.180469
0.11627
0.152588
0.186818
0.216208
0.238835
0.252715
0.256936
0.250765
0.235575
0.211833
0.180463
0.142866
0.100958
0.0571507
0.0142945
-0.0244809
-0.055992
-0.0773305
-0.0862323
-0.0814764
-0.0631672
-0.0328838
0.00638225
0.0504703
0.0945346
0.131657
0.157858
0.170191
0.168033
0.151915
0.125359
0.0720574
0.0970194
0.122399
0.146757
0.168789
0.186884
0.199945
0.20675
0.207119
0.200391
0.186256
0.164875
0.136976
0.103902
0.0675994
0.0305115
-0.00461033
-0.0349827
-0.0581116
-0.0721354
-0.0761007
-0.0701409
-0.0554986
-0.0344102
-0.0098088
0.0141564
0.0344955
0.048736
0.0557946
0.0552569
0.0486274
0.0228862
0.0347776
0.0494307
0.0668552
0.0863814
0.106874
0.127028
0.145112
0.159368
0.168025
0.16957
0.162964
0.147807
0.124439
0.0939739
0.0582285
0.019569
-0.0193218
-0.0557215
-0.0871564
-0.111669
-0.128021
-0.135796
-0.135398
-0.127941
-0.114856
-0.0982356
-0.0801416
-0.0621312
-0.0455862
-0.0310324
-0.0262833
-0.0280245
-0.0252024
-0.0163753
-0.0016162
0.0184825
0.0424789
0.0682434
0.0926874
0.113175
0.12726
0.132976
0.129047
0.115025
0.0913406
0.0592592
0.0207416
-0.0217458
-0.0654633
-0.107625
-0.145641
-0.177317
-0.201004
-0.215687
-0.221012
-0.21618
-0.202453
-0.181435
-0.154975
-0.125126
-0.0940306
-0.0713561
-0.0862383
-0.0955024
-0.0964072
-0.0885053
-0.0718073
-0.0477581
-0.018674
0.0114467
0.0394905
0.0624843
0.0779321
0.0840322
0.0798241
0.0652304
0.0410134
0.00864716
-0.0298357
-0.0720225
-0.115279
-0.15693
-0.194428
-0.225504
-0.248289
-0.261443
-0.262675
-0.252437
-0.23174
-0.202415
-0.166688
-0.12763
-0.108658
-0.135071
-0.155574
-0.166366
-0.166588
-0.15568
-0.134941
-0.106644
-0.0752115
-0.0438206
-0.0155391
0.00701861
0.0218842
0.0278567
0.0245144
0.0121553
-0.00832598
-0.0355531
-0.0677849
-0.102992
-0.138956
-0.173358
-0.2039
-0.228414
-0.24504
-0.250728
-0.245137
-0.228548
-0.202447
-0.168739
-0.130696
-0.134464
-0.169511
-0.199004
-0.218445
-0.226708
-0.222757
-0.207644
-0.183422
-0.154475
-0.123694
-0.0938712
-0.0673843
-0.0460569
-0.0310861
-0.0230775
-0.0221301
-0.027957
-0.0399617
-0.0572864
-0.0788022
-0.103105
-0.128513
-0.153118
-0.174863
-0.19172
-0.20042
-0.199905
-0.189684
-0.170682
-0.144168
-0.113062
-0.144827
-0.184175
-0.21882
-0.244048
-0.258676
-0.261377
-0.252956
-0.235153
-0.211932
-0.185645
-0.158534
-0.132465
-0.108858
-0.0886803
-0.0725373
-0.0607871
-0.0536588
-0.0512922
-0.0537202
-0.0607735
-0.0719744
-0.0864366
-0.10284
-0.11946
-0.134324
-0.144224
-0.147566
-0.143201
-0.131448
-0.112907
-0.089878
-0.135932
-0.173835
-0.20825
-0.234835
-0.252616
-0.260267
-0.258432
-0.248555
-0.233849
-0.215981
-0.196444
-0.176377
-0.156572
-0.137539
-0.119653
-0.103307
-0.0890278
-0.0774842
-0.0694163
-0.0654638
-0.0659736
-0.0708125
-0.0792701
-0.090036
-0.101332
-0.110095
-0.114483
-0.112948
-0.105325
-0.0917412
-0.0738766
-0.105402
-0.135164
-0.162936
-0.185357
-0.201976
-0.211792
-0.215465
-0.214214
-0.210228
-0.204394
-0.197319
-0.189239
-0.180111
-0.169752
-0.158053
-0.145162
-0.131602
-0.118272
-0.106326
-0.0969521
-0.0911124
-0.0892895
-0.0913271
-0.0963624
-0.102922
-0.108128
-0.110222
-0.107572
-0.0997551
-0.086712
-0.0696527
-0.0541557
-0.0691879
-0.0839323
-0.0965337
-0.107355
-0.116036
-0.123419
-0.130602
-0.138516
-0.14722
-0.156334
-0.165061
-0.172355
-0.177145
-0.178599
-0.176359
-0.170662
-0.162335
-0.152662
-0.14312
-0.135083
-0.129521
-0.126787
-0.126512
-0.127651
-0.127631
-0.125046
-0.118469
-0.107434
-0.0919112
-0.0728051
0.0121703
0.0168243
0.0199702
0.021658
0.0205144
0.0160535
0.00712815
-0.0073072
-0.0267846
-0.0505168
-0.0771108
-0.10468
-0.131102
-0.154312
-0.172629
-0.185028
-0.191272
-0.191917
-0.188175
-0.181641
-0.173969
-0.166543
-0.160225
-0.155203
-0.15099
-0.145531
-0.137923
-0.127099
-0.112686
-0.0947444
-0.0739391
0.0809719
0.106393
0.128676
0.146107
0.15632
0.157966
0.149597
0.130187
0.101563
0.0652663
0.0235993
-0.0205863
-0.0642065
-0.104302
-0.138406
-0.164845
-0.182883
-0.192741
-0.195469
-0.192675
-0.186205
-0.177798
-0.1688
-0.159979
-0.151468
-0.141955
-0.131033
-0.118017
-0.102662
-0.0850348
-0.0655769
0.138066
0.180864
0.219292
0.250253
0.270635
0.278396
0.271936
0.250302
0.216419
0.172408
0.121229
0.0664056
0.0116675
-0.0394392
-0.0839333
-0.119711
-0.145686
-0.161818
-0.169003
-0.168824
-0.163237
-0.154235
-0.143552
-0.132445
-0.121601
-0.110545
-0.0992256
-0.0872545
-0.0744608
-0.0607865
-0.0463749
0.166203
0.217577
0.263927
0.30166
0.327417
0.33909
0.334935
0.31418
0.280326
0.235733
0.183558
0.127466
0.0712742
0.0185764
-0.0276118
-0.0651402
-0.0928429
-0.11057
-0.119088
-0.119874
-0.114826
-0.105967
-0.0951609
-0.0839017
-0.0731895
-0.0632468
-0.0541952
-0.0457664
-0.0378483
-0.0301904
-0.0226357
0.1582
0.207241
0.251535
0.287731
0.312852
0.324681
0.322229
0.304846
0.275889
0.237564
0.192724
0.144604
0.0965171
0.0515315
0.0121963
-0.0196889
-0.0431583
-0.0580985
-0.0651677
-0.0656274
-0.0611158
-0.0534025
-0.0441618
-0.0347887
-0.0262857
-0.0192273
-0.0137045
-0.00959012
-0.00670893
-0.00469102
-0.00317741
0.120667
0.157948
0.191639
0.219201
0.238463
0.247487
0.245785
0.233301
0.21252
0.185154
0.15334
0.11944
0.0858201
0.0546264
0.0275974
0.00592636
-0.00978585
-0.0195327
-0.0238376
-0.0236361
-0.0201191
-0.0145647
-0.00818333
-0.00199379
0.00326072
0.00704156
0.00927278
0.0100894
0.00968267
0.00837071
0.00661931
-0.00871135
-0.00837011
-0.00572235
0.00032259
0.0101378
0.0241831
0.0419746
0.0624746
0.0843158
0.105839
0.125178
0.140465
0.150057
0.15276
0.147996
0.135902
0.117348
0.0938426
0.0673666
0.040132
0.0143123
-0.00821821
-0.026087
-0.0385483
-0.0454996
-0.047301
-0.044964
-0.039738
-0.0328041
-0.0253034
-0.0178581
-0.0354689
-0.0426471
-0.0464882
-0.0448772
-0.0368951
-0.0215567
0.000773333
0.0287393
0.0601071
0.0923656
0.122614
0.147895
0.165552
0.173587
0.170947
0.157687
0.134995
0.105059
0.0707996
0.0354926
0.00234111
-0.0259322
-0.0473974
-0.0611051
-0.0670999
-0.0662178
-0.0601626
-0.0508922
-0.0401287
-0.029499
-0.019791
-0.0776181
-0.097788
-0.113743
-0.122132
-0.121245
-0.109425
-0.0867018
-0.0544493
-0.0158581
0.0257905
0.0666075
0.102553
0.12993
0.145884
0.148798
0.138535
0.116474
0.0853366
0.0488217
0.0110932
-0.0237991
-0.0524709
-0.0726195
-0.0832631
-0.0847417
-0.0785897
-0.0671699
-0.0531778
-0.0387869
-0.0259668
-0.0154987
-0.125894
-0.161605
-0.19257
-0.214239
-0.224018
-0.219626
-0.200496
-0.167833
-0.125675
-0.077873
-0.0291031
0.0157017
0.051963
0.0760748
0.0859059
0.0811083
0.0631603
0.03516
0.0013748
-0.0333969
-0.0645346
-0.0882691
-0.102182
-0.105477
-0.0989558
-0.0850308
-0.0667686
-0.0474563
-0.0296598
-0.0155137
-0.00560986
-0.163888
-0.212384
-0.256089
-0.289595
-0.309646
-0.313468
-0.29998
-0.270133
-0.228491
-0.179203
-0.127395
-0.0785327
-0.0377221
-0.0090096
0.00519653
0.00447954
-0.00954438
-0.0334684
-0.0626186
-0.0917941
-0.11608
-0.131612
-0.136125
-0.129238
-0.112376
-0.0889478
-0.0627628
-0.0377091
-0.0165832
-0.00158392
0.00711472
-0.175759
-0.228979
-0.277855
-0.316803
-0.342368
-0.351612
-0.343217
-0.317954
-0.280441
-0.234831
-0.186304
-0.140398
-0.102265
-0.0759315
-0.063686
-0.0657141
-0.080073
-0.102977
-0.129388
-0.153838
-0.171321
-0.178113
-0.172348
-0.154273
-0.126114
-0.0923831
-0.0577365
-0.0266933
-0.00220177
0.0135132
0.0207971
-0.153875
-0.201296
-0.245426
-0.281345
-0.305974
-0.316617
-0.312085
-0.29308
-0.263666
-0.227647
-0.189775
-0.155097
-0.128223
-0.112604
-0.109929
-0.119793
-0.139704
-0.165421
-0.191595
-0.212661
-0.223767
-0.221618
-0.205026
-0.175122
-0.135124
-0.090785
-0.0476968
-0.011012
0.0162624
0.0319398
0.037019
-0.10097
-0.132962
-0.163291
-0.188478
-0.206347
-0.214804
-0.213104
-0.201933
-0.184218
-0.163052
-0.142279
-0.125916
-0.117483
-0.119342
-0.132168
-0.154672
-0.183664
-0.214436
-0.24146
-0.259296
-0.263541
-0.251645
-0.2234
-0.181068
-0.129039
-0.0744626
-0.023885
0.0169973
0.0452375
0.0588234
0.0596063
-0.029309
-0.0401715
-0.0514358
-0.0615726
-0.0696113
-0.0742965
-0.0754493
-0.0736815
-0.0703454
-0.0675002
-0.0676888
-0.0734751
-0.0868909
-0.108876
-0.138855
-0.174555
-0.212113
-0.246517
-0.27231
-0.28451
-0.279513
-0.255847
-0.214558
-0.159234
-0.0955239
-0.03209
0.0237151
0.0658967
0.0917338
0.0996333
0.0925319
0.0445399
0.0553763
0.0636187
0.0687508
0.0705176
0.0692868
0.0647434
0.0564965
0.0449276
0.0291971
0.00825727
-0.0188292
-0.0524742
-0.0921393
-0.136036
-0.181036
-0.222832
-0.256398
-0.276692
-0.27953
-0.262415
-0.225182
-0.170265
-0.102593
-0.0289902
0.0404241
0.0978242
0.137288
0.156498
0.154558
0.135649
0.105341
0.133949
0.158094
0.175525
0.185003
0.186119
0.178274
0.161423
0.1375
0.10684
0.0697971
0.0269187
-0.0207824
-0.0715392
-0.122648
-0.170458
-0.210566
-0.238276
-0.249258
-0.24035
-0.210282
-0.160186
-0.0937483
-0.0169876
0.0624373
0.133301
0.187781
0.220433
0.229466
0.21486
0.181966
0.143247
0.183036
0.217279
0.242612
0.257197
0.260075
0.25057
0.228996
0.198323
0.159755
0.114653
0.064596
0.0115402
-0.0420116
-0.092913
-0.137419
-0.171386
-0.190706
-0.19189
-0.172784
-0.133166
-0.0751355
-0.00316596
0.0761892
0.155028
0.221731
0.268996
0.292163
0.289974
0.263231
0.218047
0.155044
0.198801
0.237048
0.266048
0.283792
0.289012
0.281082
0.260502
0.230545
0.192751
0.148871
0.100862
0.0509704
0.00183548
-0.0434677
-0.0814891
-0.10859
-0.121325
-0.116946
-0.0940089
-0.0528673
0.00403901
0.0721813
0.145251
0.215854
0.272982
0.310281
0.323988
0.313235
0.279305
0.228332
0.142906
0.184248
0.221298
0.250647
0.270466
0.279396
0.276845
0.263204
0.241241
0.212216
0.177584
0.138989
0.0983242
0.0578137
0.0200467
-0.0120742
-0.0354893
-0.0473034
-0.0452033
-0.027973
0.00410542
0.0490094
0.102975
0.160757
0.216213
0.260028
0.287052
0.294312
0.281077
0.248553
0.20198
0.112041
0.146038
0.177897
0.205083
0.226178
0.239898
0.245581
0.243171
0.23425
0.219257
0.198783
0.173612
0.144811
0.113823
0.0825208
0.0531813
0.0283595
0.0106277
0.00222846
0.00464732
0.0182648
0.0421267
0.0738997
0.110033
0.146173
0.17559
0.194382
0.200124
0.191945
0.170397
0.138991
0.0685129
0.0916764
0.115316
0.138124
0.159207
0.177474
0.192072
0.202264
0.208019
0.208642
0.20355
0.192398
0.175224
0.152568
0.12556
0.0959083
0.065805
0.0377068
0.0140459
-0.00312079
-0.012428
-0.0134409
-0.00676009
0.00601961
0.022533
0.0390681
0.0528692
0.0618173
0.0647209
0.0611
0.0522682
0.0179418
0.0279834
0.0410347
0.0571913
0.0761066
0.096984
0.118728
0.139852
0.158619
0.173176
0.18177
0.182968
0.175847
0.160153
0.136391
0.105825
0.0703856
0.0324889
-0.00521388
-0.0401142
-0.0699318
-0.0929578
-0.108208
-0.115488
-0.115343
-0.108605
-0.0970357
-0.0825557
-0.0666773
-0.0509226
-0.0361287
-0.0349037
-0.0392375
-0.0385458
-0.0312815
-0.0172687
0.00308057
0.0284831
0.0568098
0.084822
0.109743
0.128917
0.140098
0.141679
0.132852
0.113683
0.0850968
0.0487706
0.006972
-0.0376479
-0.0822626
-0.124105
-0.160686
-0.189957
-0.210444
-0.221315
-0.221155
-0.210845
-0.192024
-0.166332
-0.135962
-0.10336
-0.0859365
-0.104851
-0.117454
-0.120796
-0.114229
-0.0976995
-0.0725502
-0.0413231
-0.00836962
0.0229921
0.0496006
0.0687933
0.0786274
0.0780178
0.0667679
0.0455142
0.0155917
-0.0211124
-0.0623214
-0.105499
-0.148003
-0.187241
-0.220795
-0.246562
-0.262896
-0.267009
-0.258957
-0.239864
-0.211182
-0.17518
-0.13507
-0.131291
-0.163772
-0.189366
-0.203867
-0.206227
-0.195892
-0.174123
-0.143622
-0.109411
-0.0749608
-0.0435373
-0.0178463
0.000154219
0.0093401
0.00938572
0.000651889
-0.0159812
-0.0392473
-0.067605
-0.0992827
-0.132329
-0.164658
-0.194112
-0.218552
-0.236011
-0.243164
-0.239269
-0.224693
-0.200386
-0.168112
-0.131009
-0.166756
-0.210304
-0.246933
-0.271462
-0.282553
-0.279196
-0.262498
-0.235133
-0.202396
-0.167612
-0.133848
-0.103571
-0.078514
-0.0596603
-0.0473542
-0.0414763
-0.0416426
-0.0473247
-0.0579061
-0.072642
-0.090592
-0.110548
-0.130998
-0.150148
-0.166055
-0.175415
-0.176774
-0.169638
-0.154268
-0.131592
-0.10409
-0.187424
-0.237795
-0.281575
-0.313054
-0.330782
-0.333453
-0.322066
-0.299184
-0.270056
-0.237686
-0.204754
-0.173297
-0.144653
-0.119507
-0.0980874
-0.0803955
-0.0664395
-0.056343
-0.0503518
-0.0487179
-0.0515254
-0.058504
-0.0688987
-0.0814147
-0.0943085
-0.10453
-0.110122
-0.109852
-0.103306
-0.0905966
-0.0733398
-0.187911
-0.239006
-0.284097
-0.317554
-0.33809
-0.344373
-0.337465
-0.319827
-0.296395
-0.26976
-0.242089
-0.214853
-0.188828
-0.164224
-0.140945
-0.118882
-0.098176
-0.0793192
-0.0631355
-0.0506032
-0.0426015
-0.0396349
-0.0416207
-0.0477684
-0.0566229
-0.0654065
-0.0719901
-0.0747432
-0.0727703
-0.065676
-0.05434
-0.163807
-0.208045
-0.247136
-0.276233
-0.294555
-0.301087
-0.297201
-0.285331
-0.269805
-0.252739
-0.235671
-0.219351
-0.203808
-0.188549
-0.172885
-0.156286
-0.138666
-0.120504
-0.102812
-0.0869222
-0.0741885
-0.0656533
-0.0617709
-0.0622357
-0.065974
-0.0704718
-0.0738251
-0.0744291
-0.0712107
-0.0636696
-0.0522373
-0.114068
-0.143482
-0.168934
-0.187022
-0.197833
-0.201006
-0.198448
-0.192638
-0.186971
-0.182993
-0.181474
-0.182272
-0.184468
-0.186631
-0.187214
-0.184961
-0.179228
-0.17013
-0.158517
-0.145756
-0.133417
-0.122905
-0.11514
-0.110339
-0.107951
-0.105845
-0.102676
-0.0972372
-0.088561
-0.0763375
-0.0608056
-0.0432376
-0.0512615
-0.0568436
-0.0584883
-0.0574263
-0.0541835
-0.0513301
-0.0514043
-0.0565487
-0.067623
-0.0844967
-0.105991
-0.130092
-0.154273
-0.175967
-0.193014
-0.204017
-0.208523
-0.207026
-0.200762
-0.191393
-0.180632
-0.169883
-0.159981
-0.151061
-0.141642
-0.131117
-0.118855
-0.104177
-0.0870304
-0.0675547
0.035527
0.0513104
0.0678717
0.0846846
0.0993434
0.110407
0.114714
0.10973
0.0947458
0.0696458
0.0354903
-0.0055223
-0.0503271
-0.0953751
-0.137146
-0.172641
-0.199744
-0.217444
-0.22586
-0.226065
-0.219787
-0.209032
-0.195704
-0.181298
-0.166718
-0.151395
-0.135437
-0.118759
-0.101012
-0.0822688
-0.0625598
0.106138
0.143141
0.179281
0.212337
0.238971
0.256999
0.262972
0.25452
0.23233
0.197016
0.150452
0.0956553
0.0364638
-0.0228718
-0.0782174
-0.12605
-0.163814
-0.190149
-0.20494
-0.209166
-0.204624
-0.193567
-0.178317
-0.160939
-0.142996
-0.124926
-0.107333
-0.0904904
-0.074287
-0.0587157
-0.0435657
0.148006
0.197163
0.244085
0.285788
0.318536
0.340057
0.346845
0.336924
0.312028
0.273295
0.223043
0.164615
0.102043
0.0396565
-0.0184086
-0.068658
-0.108549
-0.136701
-0.15294
-0.158184
-0.1542
-0.143274
-0.127859
-0.110254
-0.0923487
-0.0753421
-0.060035
-0.0467467
-0.035538
-0.0261897
-0.0182325
0.150486
0.199748
0.246221
0.286849
0.318312
0.338272
0.344272
0.334755
0.31185
0.276897
0.232184
0.180784
0.126264
0.0723423
0.0225046
-0.0203506
-0.0541462
-0.0777841
-0.0911776
-0.0951625
-0.0912962
-0.0815963
-0.0682535
-0.0533601
-0.0386889
-0.0256944
-0.0150304
-0.00705742
-0.00176691
0.00120657
0.00251511
0.119482
0.158065
0.19418
0.225435
0.249375
0.263962
0.267727
0.260027
0.242648
0.216786
0.18427
0.147412
0.108801
0.0710534
0.0365555
0.00724408
-0.0155392
-0.0311397
-0.0396001
-0.0415934
-0.0382832
-0.0311428
-0.021759
-0.0116488
-0.00209984
0.0057192
0.0113237
0.0145352
0.0154424
0.0143775
0.0120642
-0.0103825
-0.0117797
-0.0116191
-0.00892553
-0.00331952