# vtk DataFile Version 2.0
Func
ASCII
DATASET RECTILINEAR_GRID
DIMENSIONS 31 31 31
X_COORDINATES 31 double
-9.67742
-9.03226
-8.3871
-7.74194
-7.09677
-6.45161
-5.80645
-5.16129
-4.51613
-3.87097
-3.22581
-2.58065
-1.93548
-1.29032
-0.645161
0
0.645161
1.29032
1.93548
2.58065
3.22581
3.87097
4.51613
5.16129
5.80645
6.45161
7.09677
7.74194
8.3871
9.03226
9.67742
Y_COORDINATES 31 double
-9.67742
-9.03226
-8.3871
-7.74194
-7.09677
-6.45161
-5.80645
-5.16129
-4.51613
-3.87097
-3.22581
-2.58065
-1.93548
-1.29032
-0.645161
0
0.645161
1.29032
1.93548
2.58065
3.22581
3.87097
4.51613
5.16129
5.80645
6.45161
7.09677
7.74194
8.3871
9.03226
9.67742
Z_COORDINATES 31 double
-9.67742
-9.03226
-8.3871
-7.74194
-7.09677
-6.45161
-5.80645
-5.16129
-4.51613
-3.87097
-3.22581
-2.58065
-1.93548
-1.29032
-0.645161
0
0.645161
1.29032
1.93548
2.58065
3.22581
3.87097
4.51613
5.16129
5.80645
6.45161
7.09677
7.74194
8.3871
9.03226
9.67742
POINT_DATA 29791
SCALARS data double 1
LOOKUP_TABLE default
0.0361655
0.0431877
0.0472059
0.0466497
0.0413754
0.0312805
0.0172938
0.000695391
-0.0165405
-0.0329498
-0.0472521
-0.0585309
-0.0663209
-0.0706467
-0.0719753
-0.0711113
-0.0690446
-0.0667885
-0.0652235
-0.0649604
-0.0662529
-0.0689648
-0.07261
-0.0764307
-0.0795374
-0.0805764
-0.0788099
-0.0737258
-0.065725
-0.0550752
-0.0431027
0.0442022
0.0522992
0.0561186
0.0540523
0.0458893
0.0316913
0.0127966
-0.009124
-0.0314115
-0.0521437
-0.0696998
-0.0829823
-0.0915279
-0.0955379
-0.0957947
-0.0935049
-0.0900792
-0.0869069
-0.0851436
-0.085532
-0.088299
-0.0931268
-0.0992228
-0.105444
-0.11049
-0.112393
-0.110244
-0.103371
-0.0922702
-0.0774701
-0.0604812
0.0386187
0.0449012
0.0469548
0.0434003
0.0341742
0.0195823
0.000872748
-0.0201511
-0.0409391
-0.0596749
-0.0749099
-0.0857649
-0.0920221
-0.0941225
-0.0930577
-0.0901837
-0.0869827
-0.0848275
-0.0847721
-0.0873831
-0.0926596
-0.100034
-0.108468
-0.116608
-0.122991
-0.125478
-0.123118
-0.115432
-0.102946
-0.0863721
-0.0672512
0.0186905
0.0208107
0.0204282
0.0167882
0.0100986
0.000656743
-0.0105463
-0.0222674
-0.0330375
-0.0418764
-0.0481422
-0.0516399
-0.0526406
-0.0518307
-0.0501885
-0.0488159
-0.0487518
-0.0508038
-0.0554178
-0.0625905
-0.0718611
-0.082362
-0.0929376
-0.102295
-0.109177
-0.111857
-0.109752
-0.102612
-0.0911347
-0.0761186
-0.0588749
-0.0102146
-0.0132735
-0.0155308
-0.0168041
-0.0166591
-0.0148807
-0.0112839
-0.00580573
0.00109726
0.00889845
0.0168761
0.0241687
0.0298685
0.0331303
0.0332858
0.0299438
0.0230523
0.0129232
0.000210281
-0.0141503
-0.0290423
-0.0432876
-0.0557747
-0.0655704
-0.0720037
-0.0743207
-0.0726319
-0.0672281
-0.0589164
-0.0485418
-0.0369624
-0.0402847
-0.0477062
-0.0501366
-0.0463771
-0.0358826
-0.018689
0.004242
0.0313518
0.0597983
0.0871777
0.111132
0.129609
0.14108
0.144703
0.140406
0.128874
0.111437
0.0899009
0.0663271
0.0427911
0.021149
0.00285066
-0.0111812
-0.0205992
-0.0255884
-0.0267187
-0.0250251
-0.0214972
-0.0170695
-0.0126024
-0.00840856
-0.0665657
-0.0768055
-0.0779227
-0.0676715
-0.0455584
-0.0119831
0.0307893
0.0794254
0.128671
0.17423
0.212156
0.239314
0.253715
0.254724
0.243075
0.220731
0.190572
0.156015
0.120589
0.0875046
0.0593039
0.0376118
0.0230406
0.0152244
0.0130024
0.0143954
0.0173599
0.0201472
0.021684
0.0210823
0.0186286
-0.0868566
-0.0988149
-0.0983018
-0.0822094
-0.0502241
-0.00313445
0.0555696
0.120953
0.185733
0.244053
0.290719
0.321837
0.335226
0.330639
0.309708
0.27566
0.232826
0.186065
0.140158
0.0992385
0.0663379
0.0431129
0.0297855
0.0252649
0.0274619
0.0331856
0.0394588
0.0438337
0.0450883
0.0422699
0.036153
-0.102289
-0.115947
-0.115033
-0.0958151
-0.0582092
-0.0033198
0.0644206
0.138895
0.211418
0.275117
0.32406
0.354007
0.362861
0.350876
0.320526
0.276092
0.223024
0.167227
0.114327
0.0690096
0.0345206
0.0123912
0.00242781
0.00291035
0.0110111
0.0227303
0.0343677
0.0429458
0.0471018
0.0457789
0.0400581
-0.114323
-0.130406
-0.131156
-0.112474
-0.0744664
-0.01841
0.0507145
0.126164
0.198554
0.260603
0.306174
0.331072
0.333492
0.314193
0.276289
0.224753
0.16568
0.105493
0.0501593
0.00449618
-0.0283208
-0.047006
-0.0521226
-0.045826
-0.0313845
-0.013098
0.0049313
0.0194402
0.0289625
0.032323
0.0306877
-0.123019
-0.142052
-0.1461
-0.130923
-0.0967413
-0.0448522
0.0196268
0.0898631
0.156405
0.212091
0.251007
0.26928
0.265485
0.240778
0.198626
0.14426
0.0839134
0.024005
-0.029634
-0.0724153
-0.101447
-0.11573
-0.116075
-0.104813
-0.0853014
-0.0616424
-0.0379709
-0.0175565
-0.00191596
0.00768029
0.0122636
-0.126336
-0.147676
-0.155072
-0.144371
-0.115827
-0.0706608
-0.013801
0.0482389
0.106426
0.154075
0.185764
0.198067
0.189917
0.162681
0.11987
0.0665829
0.00875399
-0.0476102
-0.0971516
-0.135739
-0.160855
-0.171734
-0.169253
-0.155638
-0.134
-0.107851
-0.0810154
-0.0565188
-0.0358773
-0.0204117
-0.00940955
-0.120935
-0.142329
-0.151138
-0.143526
-0.119762
-0.0809822
-0.0317249
0.0220553
0.0720796
0.11233
0.137986
0.146088
0.135831
0.108612
0.0677305
0.0178613
-0.0356337
-0.0873953
-0.132696
-0.167929
-0.190913
-0.200994
-0.198914
-0.186552
-0.166515
-0.141497
-0.114765
-0.0889365
-0.0655065
-0.0458084
-0.0295798
-0.103894
-0.121825
-0.12864
-0.121099
-0.0995257
-0.0650473
-0.0217289
0.0251423
0.0682808
0.102415
0.123364
0.128602
0.117504
0.0913681
0.0531314
0.0069048
-0.0426331
-0.0908276
-0.133579
-0.167736
-0.191346
-0.203708
-0.205274
-0.197413
-0.182099
-0.161158
-0.1372
-0.112387
-0.0882239
-0.0660543
-0.0461362
-0.0742451
-0.0848545
-0.0859446
-0.0751774
-0.0530241
-0.0207147
0.0181762
0.0590827
0.0959247
0.124237
0.140513
0.142664
0.130223
0.104346
0.0675733
0.0234353
-0.024053
-0.0708804
-0.113475
-0.149021
-0.175659
-0.192528
-0.199698
-0.19799
-0.188746
-0.173017
-0.152818
-0.129915
-0.105905
-0.0821785
-0.0595324
-0.0336865
-0.0338385
-0.0263508
-0.0100798
0.0142612
0.0452388
0.0797913
0.114146
0.143656
0.164763
0.17472
0.171941
0.156157
0.128419
0.0909048
0.046612
-0.00103513
-0.0485733
-0.0928482
-0.13127
-0.161979
-0.183907
-0.196735
-0.200792
-0.196897
-0.185501
-0.168183
-0.146461
-0.122108
-0.0966359
-0.0713525
0.0136428
0.0255756
0.0428382
0.0651805
0.0915947
0.120412
0.149153
0.17496
0.194858
0.206335
0.207529
0.197452
0.176102
0.144468
0.104401
0.0584007
0.00934539
-0.0397955
-0.0862254
-0.127526
-0.16181
-0.187799
-0.204842
-0.212872
-0.212319
-0.203223
-0.186907
-0.164794
-0.138903
-0.110919
-0.0826204
0.0619654
0.0857627
0.112155
0.139475
0.166445
0.191227
0.212047
0.227113
0.235303
0.235285
0.226174
0.207633
0.179943
0.14401
0.10132
0.0538343
0.00384645
-0.0461892
-0.0938423
-0.136867
-0.173353
-0.20183
-0.221354
-0.231526
-0.232483
-0.223965
-0.207169
-0.18352
-0.155292
-0.124367
-0.092939
0.104827
0.138468
0.171772
0.201847
0.227273
0.246196
0.257699
0.261177
0.257396
0.246239
0.22778
0.202265
0.170144
0.132104
0.0891163
0.042461
-0.00626845
-0.0552196
-0.102378
-0.145686
-0.183198
-0.213231
-0.234517
-0.246304
-0.248418
-0.240319
-0.223088
-0.198171
-0.168041
-0.134757
-0.100875
0.136062
0.17602
0.212906
0.243013
0.264982
0.277176
0.279653
0.273019
0.259749
0.240812
0.217056
0.189072
0.157224
0.12172
0.0827777
0.0407914
-0.00349977
-0.0489408
-0.0939686
-0.136695
-0.175071
-0.207104
-0.231083
-0.24578
-0.250589
-0.244611
-0.228723
-0.204339
-0.174035
-0.140001
-0.105109
0.150848
0.192541
0.229061
0.256426
0.273595
0.279399
0.274905
0.261829
0.243938
0.222989
0.200247
0.176284
0.151021
0.123871
0.0940372
0.0608456
0.0240665
-0.0158817
-0.0578601
-0.100064
-0.140216
-0.175851
-0.204648
-0.224727
-0.23489
-0.233751
-0.221868
-0.200543
-0.172355
-0.139591
-0.105373
0.146859
0.185299
0.217402
0.239474
0.251041
0.25161
0.243188
0.228367
0.211618
0.195066
0.179954
0.166428
0.153617
0.139877
0.123229
0.101852
0.0745509
0.0410724
0.00224252
-0.0400788
-0.0832348
-0.12414
-0.159721
-0.187319
-0.205034
-0.210923
-0.205159
-0.18888
-0.164604
-0.134706
-0.102462
0.125249
0.155905
0.180058
0.194764
0.200284
0.196931
0.187459
0.175016
0.16414
0.156886
0.154077
0.155109
0.158104
0.160265
0.158448
0.149786
0.132277
0.105176
0.069169
0.0263173
-0.0202417
-0.0667492
-0.109366
-0.144683
-0.170133
-0.183279
-0.183965
-0.173184
-0.153372
-0.126994
-0.0973457
0.0908935
0.110637
0.124522
0.130616
0.129956
0.123657
0.114944
0.10717
0.104396
0.108265
0.118926
0.134901
0.153318
0.170368
0.181982
0.184546
0.17555
0.154018
0.120685
0.0778966
0.0292541
-0.0209221
-0.0682131
-0.108681
-0.139327
-0.157461
-0.16278
-0.156219
-0.140136
-0.117067
-0.0901583
0.0514504
0.0593115
0.0624103
0.0598687
0.053373
0.0447019
0.0372363
0.0342079
0.0388594
0.052247
0.0738097
0.101308
0.131133
0.158837
0.179861
0.190284
0.187471
0.170493
0.140267
0.0994041
0.0518031
0.00205555
-0.04521
-0.085932
-0.117071
-0.136068
-0.14272
-0.138035
-0.12428
-0.103992
-0.079983
0.0152344
0.0125933
0.00636229
-0.0034448
-0.0147487
-0.025353
-0.0320279
-0.0319146
-0.0226909
-0.00387789
0.0234123
0.0564915
0.0914495
0.123712
0.148761
0.162846
0.163585
0.150318
0.124187
0.0879428
0.0454891
0.00128397
-0.0403051
-0.0755743
-0.101884
-0.117233
-0.121746
-0.116613
-0.103963
-0.0862011
-0.0656312
-0.0112469
-0.0211433
-0.0336317
-0.0481006
-0.0624046
-0.0742355
-0.0807681
-0.0796787
-0.0694677
-0.0500918
-0.0229288
0.00929271
0.0428545
0.0735802
0.0974855
0.1114
0.113464
0.103395
0.0825044
0.0534593
0.0198324
-0.0144677
-0.045772
-0.0711436
-0.0886869
-0.0972583
-0.0974224
-0.0905691
-0.078604
-0.0636292
-0.0473883
-0.0250669
-0.0381054
-0.0530199
-0.0689099
-0.0838694
-0.0957762
-0.102377
-0.101951
-0.0936181
-0.0775756
-0.0551684
-0.0287901
-0.00155649
0.0231527
0.0422264
0.0533139
0.0551932
0.0479462
0.0329148
0.012452
-0.0104903
-0.0328531
-0.0519383
-0.0657847
-0.0733702
-0.0744738
-0.0700431
-0.0615862
-0.0506812
-0.0389903
-0.0276326
-0.0273557
-0.0398126
-0.0536237
-0.067886
-0.0811373
-0.0916683
-0.0978744
-0.0986265
-0.0934516
-0.0826153
-0.067206
-0.0490355
-0.0303801
-0.0136299
-0.000900225
0.006313
0.00737522
0.00260379
-0.00680636
-0.0190103
-0.0318485
-0.0432266
-0.0514537
-0.0554935
-0.0550655
-0.0506439
-0.0433478
-0.0345891
-0.0255523
-0.0173853
-0.0105598
-0.0218713
-0.0312861
-0.0416276
-0.0521744
-0.061982
-0.0698709
-0.0748569
-0.0763096
-0.0740046
-0.0681693
-0.0595384
-0.0492753
-0.038795
-0.0295338
-0.0227028
-0.019081
-0.0188806
-0.0217157
-0.0266787
-0.0325167
-0.0378663
-0.0415111
-0.04259
-0.0407421
-0.0361307
-0.0295221
-0.0219059
-0.0144828
-0.00797738
-0.00307411
0.000232698
-0.0134496
-0.0190272
-0.0251428
-0.031307
-0.0370531
-0.0417357
-0.0448655
-0.0461839
-0.0456153
-0.0433109
-0.0396704
-0.035293
-0.0308797
-0.0271109
-0.0245217
-0.0234034
-0.0237457
-0.0252366
-0.0273195
-0.0293009
-0.0304854
-0.0303151
-0.0284734
-0.0249515
-0.0200325
-0.0143665
-0.00866911
-0.00368851
0.000203105
0.00260086
0.00387302
0.0555325
0.065996
0.0715011
0.069807
0.0607762
0.0445373
0.0226462
-0.00279929
-0.0285196
-0.05214
-0.0716485
-0.0856833
-0.0936718
-0.0958745
-0.0932922
-0.0874767
-0.0802614
-0.0734802
-0.0687004
-0.0669918
-0.0687856
-0.0738253
-0.0812383
-0.089677
-0.0975558
-0.10256
-0.10339
-0.0991058
-0.090069
-0.0766501
-0.0607034
0.0685789
0.0807439
0.085938
0.0817038
0.0679142
0.0450856
0.0154156
-0.0183903
-0.0518716
-0.0818908
-0.105872
-0.122169
-0.130233
-0.130646
-0.124967
-0.115455
-0.104685
-0.095163
-0.0889588
-0.0874074
-0.0909388
-0.0990356
-0.11035
-0.122919
-0.134488
-0.141742
-0.14312
-0.13741
-0.12497
-0.106464
-0.0840942
0.0628478
0.072758
0.0755957
0.0690837
0.0533221
0.0291967
-0.00118407
-0.0347752
-0.0671327
-0.0951574
-0.116425
-0.129535
-0.134263
-0.131543
-0.123278
-0.112012
-0.100509
-0.0913418
-0.0865227
-0.0872083
-0.0935577
-0.104731
-0.119044
-0.134228
-0.147778
-0.156116
-0.157584
-0.151233
-0.137395
-0.11694
-0.0921628
0.0373917
0.0419543
0.0417724
0.0352805
0.0229237
0.00542834
-0.0153638
-0.0370533
-0.0566449
-0.0721212
-0.0820935
-0.086033
-0.0843251
-0.0781927
-0.0694866
-0.0603811
-0.0530264
-0.0492275
-0.0501835
-0.0563061
-0.067173
-0.0815924
-0.0977856
-0.113637
-0.126992
-0.134948
-0.13636
-0.130581
-0.118212
-0.10022
-0.0785758
-0.000704375
-0.00270741
-0.00487921
-0.00761151
-0.01019
-0.0122005
-0.0129079
-0.0114532
-0.00754704
-0.00122706
0.00706712
0.0164864
0.0258709
0.0338944
0.039253
0.0408666
0.0380422
0.0305851
0.0188402
0.00366587
-0.0136737
-0.0316589
-0.0487037
-0.0633392
-0.0743734
-0.0804672
-0.0814769
-0.0775173
-0.0694189
-0.0581671
-0.0450276
-0.0404986
-0.0478074
-0.0494046
-0.0444027
-0.031988
-0.0123236
0.0136997
0.0447432
0.0776987
0.109929
0.138776
0.161833
0.177214
0.183758
0.181159
0.169996
0.151634
0.12805
0.101586
0.0746606
0.0494841
0.0278196
0.0108174
-0.00106217
-0.00801086
-0.0108082
-0.0106438
-0.00861742
-0.00583069
-0.00323971
-0.00121439
-0.0755837
-0.0861612
-0.0850996
-0.0702363
-0.0408709
0.00211907
0.0559514
0.116822
0.178155
0.23466
0.281506
0.314874
0.332379
0.333323
0.318715
0.291098
0.254152
0.212204
0.169681
0.130558
0.0979034
0.0735728
0.0580917
0.0507153
0.0496861
0.0519723
0.0549243
0.0563785
0.0549697
0.0497721
0.0414027
-0.103092
-0.115612
-0.111597
-0.0878671
-0.0439929
0.018448
0.0948677
0.179205
0.261941
0.335584
0.393592
0.431167
0.445786
0.437456
0.408612
0.363728
0.308639
0.249767
0.193312
0.144487
0.106938
0.0824112
0.0707016
0.0698588
0.0766496
0.0861084
0.0942333
0.097893
0.0955077
0.0861498
0.0712713
-0.124721
-0.13944
-0.134448
-0.105848
-0.0535335
0.0203731
0.109874
0.207218
0.300826
0.381758
0.442458
0.47771
0.48521
0.465796
0.423212
0.363528
0.294237
0.223266
0.157984
0.104315
0.066095
0.0447487
0.0393337
0.046866
0.0629475
0.0813192
0.0969281
0.105926
0.106604
0.0979941
0.0821112
-0.142459
-0.160667
-0.157879
-0.129764
-0.0764811
-0.00044953
0.091493
0.190681
0.284466
0.363309
0.419373
0.447542
0.44599
0.416344
0.363332
0.294061
0.216967
0.140712
0.0731036
0.0201788
-0.0144283
-0.0297532
-0.0273723
-0.0109809
0.0143324
0.0418154
0.0658249
0.0821473
0.0890617
0.0855367
0.0738173
-0.156212
-0.178862
-0.180818
-0.157551
-0.109369
-0.0387474
0.0472422
0.139769
0.226013
0.296568
0.3439
0.363353
0.353662
0.317043
0.258754
0.186292
0.108287
0.03337
-0.0308839
-0.0788277
-0.107302
-0.115823
-0.106382
-0.0829629
-0.0508005
-0.0163613
0.0146508
0.0380547
0.0522167
0.0560563
0.0517138
-0.162979
-0.189334
-0.196321
-0.179428
-0.13901
-0.0774299
-0.00151092
0.0803146
0.155742
0.215989
0.254174
0.266246
0.251424
0.212216
0.153934
0.0838748
0.0102333
-0.0589678
-0.116855
-0.158464
-0.181196
-0.184926
-0.171751
-0.145504
-0.111047
-0.0739546
-0.0394992
-0.0114811
0.00860665
0.0196571
0.0234258
-0.158069
-0.185138
-0.194658
-0.182375
-0.148664
-0.0957256
-0.0298361
0.0412893
0.106332
0.157387
0.188354
0.19577
0.179171
0.141056
0.0864005
0.0218765
-0.0451502
-0.107583
-0.159442
-0.196494
-0.216604
-0.219774
-0.207878
-0.184213
-0.152878
-0.118206
-0.0846914
-0.0555347
-0.0321146
-0.0155654
-0.00472193
-0.137492
-0.160567
-0.168119
-0.156463
-0.126054
-0.0789845
-0.0208584
0.0414538
0.0979599
0.141725
0.167448
0.172185
0.155626
0.120047
0.0698552
0.0108848
-0.0504748
-0.108109
-0.156888
-0.193168
-0.215062
-0.222434
-0.216665
-0.200263
-0.176369
-0.147995
-0.11873
-0.0911354
-0.0665868
-0.0462992
-0.0298193
-0.0999653
-0.113924
-0.11461
-0.0992961
-0.0686326
-0.0247044
0.0275883
0.0822749
0.130996
0.167859
0.188391
0.190134
0.172871
0.138568
0.0909878
0.0351016
-0.0236421
-0.079999
-0.129511
-0.168905
-0.196306
-0.211235
-0.21442
-0.207507
-0.192684
-0.171782
-0.147588
-0.122156
-0.0970248
-0.0735952
-0.0521735
-0.0477225
-0.0484471
-0.0385973
-0.0167984
0.0159891
0.0576036
0.103891
0.149872
0.189165
0.217055
0.230009
0.226121
0.205303
0.169233
0.121063
0.0649561
0.0055285
-0.0526952
-0.105744
-0.150527
-0.18502
-0.208292
-0.2204
-0.222198
-0.215079
-0.199963
-0.179093
-0.154252
-0.127311
-0.0999754
-0.0733004
0.0139115
0.0285483
0.0504016
0.0792006
0.113619
0.151419
0.189304
0.22347
0.249878
0.265207
0.267035
0.254141
0.226639
0.185968
0.134694
0.0762141
0.0143643
-0.0469684
-0.104205
-0.154342
-0.195144
-0.225223
-0.244026
-0.251755
-0.249217
-0.236702
-0.216194
-0.189448
-0.158775
-0.126275
-0.0936974
0.0775609
0.107323
0.140295
0.174482
0.208243
0.239375
0.265634
0.284629
0.294966
0.294925
0.283347
0.259773
0.224537
0.178794
0.12446
0.0640834
0.000657752
-0.0626087
-0.122544
-0.176236
-0.22124
-0.255733
-0.278613
-0.28953
-0.288841
-0.276402
-0.254124
-0.223889
-0.188459
-0.150345
-0.111911
0.134886
0.177267
0.218529
0.255163
0.285392
0.307264
0.319811
0.322269
0.315985
0.300921
0.277182
0.244986
0.204738
0.15711
0.103145
0.0443287
-0.0173708
-0.0795622
-0.139565
-0.194588
-0.241977
-0.279447
-0.305314
-0.318647
-0.319346
-0.306876
-0.283091
-0.250026
-0.210799
-0.168285
-0.125378
0.177621
0.228165
0.273519
0.309157
0.333452
0.344983
0.34424
0.332173
0.312652
0.28717
0.256856
0.222302
0.183633
0.140681
0.0932729
0.0415368
-0.0138163
-0.071363
-0.128981
-0.183993
-0.233451
-0.274485
-0.304669
-0.322329
-0.326738
-0.316879
-0.29441
-0.261432
-0.221274
-0.177089
-0.132213
0.198842
0.251622
0.29603
0.32722
0.344067
0.345959
0.334912
0.313494
0.287519
0.259614
0.231456
0.203521
0.175173
0.144972
0.111178
0.0722997
0.027628
-0.0224474
-0.0763379
-0.131375
-0.184156
-0.231017
-0.268562
-0.294135
-0.306155
-0.302959
-0.285832
-0.256807
-0.219279
-0.176612
-0.132487
0.194621
0.242977
0.281122
0.304634
0.313229
0.307316
0.290337
0.266196
0.241808
0.220346
0.203443
0.1909
0.180863
0.170273
0.155608
0.133665
0.102327
0.0610405
0.0110087
-0.0449287
-0.102719
-0.157712
-0.205362
-0.241862
-0.264629
-0.271256
-0.262552
-0.240399
-0.208166
-0.169393
-0.127981
0.165676
0.203332
0.230392
0.243482
0.243385
0.231622
0.212796
0.191726
0.175482
0.167171
0.167823
0.176136
0.188764
0.200933
0.207389
0.203397
0.185669
0.152971
0.106361
0.049038
-0.0141745
-0.0775911
-0.135521
-0.18306
-0.216689
-0.233345
-0.233439
-0.218719
-0.192492
-0.158464
-0.120586
0.118098
0.140523
0.153172
0.154079
0.145144
0.128925
0.110788
0.0959783
0.0908976
0.0980934
0.117643
0.146988
0.18134
0.214453
0.239726
0.251341
0.245293
0.220046
0.176766
0.119116
0.0526345
-0.0161481
-0.0806881
-0.135329
-0.17596
-0.199208
-0.205331
-0.196066
-0.174654
-0.144927
-0.110658
0.0623348
0.0679336
0.0652916
0.0538976
0.0365885
0.016729
-2.6536e-05
-0.00848366
-0.00344461
0.0168186
0.0513806
0.0966079
0.146671
0.194421
0.232567
0.254872
0.257179
0.238048
0.198934
0.143911
0.0789595
0.0110063
-0.0531129
-0.107588
-0.148287
-0.172081
-0.179405
-0.172152
-0.153479
-0.127223
-0.0967197
0.0102935
0.000838149
-0.0151378
-0.036935
-0.0611431
-0.0839423
-0.0998669
-0.104174
-0.0930484
-0.0655867
-0.0234855
0.0290072
0.0856699
0.139216
0.18246
0.209458
0.216448
0.202403
0.169121
0.120868
0.0636212
0.00408829
-0.0513045
-0.0973002
-0.13038
-0.148272
-0.151879
-0.14337
-0.125756
-0.102673
-0.0767603
-0.028175
-0.0480519
-0.0729084
-0.101266
-0.129614
-0.154091
-0.169836
-0.172851
-0.160585
-0.132769
-0.0914648
-0.0409371
0.0129291
0.0634911
0.104402
0.130612
0.139156
0.129571
0.103891
0.0662369
0.0220647
-0.0227574
-0.0628568
-0.0941204
-0.114128
-0.12188
-0.118861
-0.107498
-0.0905366
-0.0711507
-0.0511926
-0.0483037
-0.0725885
-0.100645
-0.130684
-0.159542
-0.183713
-0.199231
-0.203001
-0.193449
-0.170674
-0.136679
-0.0952001
-0.0511847
-0.0100428
0.0232216
0.0448104
0.0527246
0.0470378
0.0298119
0.0046715
-0.0238786
-0.0512519
-0.073524
-0.0880187
-0.0935826
-0.0905572
-0.0808848
-0.0671043
-0.051542
-0.0367054
-0.0235662
-0.0510109
-0.0740471
-0.0998509
-0.126777
-0.152326
-0.173663
-0.187867
-0.192784
-0.187503
-0.172261
-0.148679
-0.119607
-0.0887013
-0.0598504
-0.036527
-0.0212199
-0.0150347
-0.0175481
-0.0269351
-0.0403537
-0.0545021
-0.0662393
-0.0731295
-0.073838
-0.0682608
-0.0577023
-0.044237
-0.0301631
-0.0172953
-0.00736399
-0.000503269
-0.0413773
-0.0592288
-0.0789738
-0.0993631
-0.118707
-0.134989
-0.146338
-0.151438
-0.149803
-0.141655
-0.1281
-0.111006
-0.0927039
-0.075607
-0.0617858
-0.0526158
-0.0485454
-0.0490408
-0.052713
-0.0576177
-0.0616504
-0.0629753
-0.0603681
-0.0534504
-0.0427094
-0.0297741
-0.0163971
-0.00453646
0.00466974
0.0101831
0.0124389
-0.0266992
-0.0379167
-0.0502305
-0.0628518
-0.0748571
-0.0850611
-0.0924631
-0.0964183
-0.0967099
-0.0934908
-0.0873789
-0.0793782
-0.0707101
-0.0625977
-0.0560404
-0.0516324
-0.0494549
-0.0490692
-0.0496115
-0.0499807
-0.0490747
-0.0460308
-0.0404068
-0.0322925
-0.0222777
-0.011665
-0.00173248
0.00627279
0.0117609
0.0141219
0.0141665
0.072777
0.0858788
0.0921052
0.0886655
0.0755226
0.0531527
0.0237622
-0.009522
-0.0421088
-0.0706989
-0.0925908
-0.106075
-0.110622
-0.106919
-0.0967158
-0.0825306
-0.0672427
-0.0536741
-0.0441955
-0.0403959
-0.0428807
-0.0512149
-0.0640342
-0.0792627
-0.0944612
-0.106277
-0.11254
-0.11191
-0.104552
-0.0908087
-0.073072
0.0920219
0.107565
0.11334
0.106178
0.0861001
0.054193
0.0135895
-0.0315947
-0.0750131
-0.112221
-0.139675
-0.155253
-0.158482
-0.150559
-0.134107
-0.112748
-0.0905253
-0.0713176
-0.0583081
-0.0535428
-0.0576833
-0.0699594
-0.0883437
-0.109874
-0.131135
-0.147387
-0.155921
-0.15502
-0.144736
-0.125736
-0.100904
0.089694
0.103229
0.106374
0.0960553
0.0725351
0.0373695
-0.00624
-0.0535456
-0.0978989
-0.134668
-0.160299
-0.172838
-0.172152
-0.159891
-0.139193
-0.114176
-0.0892873
-0.0686744
-0.055615
-0.052073
-0.0584707
-0.0736886
-0.095288
-0.119898
-0.143738
-0.161685
-0.170791
-0.169619
-0.158143
-0.137256
-0.109978
0.0642913
0.0725207
0.0727111
0.0624157
0.0422752
0.0135542
-0.0206574
-0.0562788
-0.0881304
-0.112667
-0.127372
-0.13116
-0.124495
-0.109292
-0.0885948
-0.0660923
-0.0455512
-0.0302812
-0.0226887
-0.023957
-0.0339255
-0.0511622
-0.0732155
-0.0969843
-0.119178
-0.135568
-0.143842
-0.142902
-0.133041
-0.115191
-0.0920167
0.0241775
0.0260343
0.0249408
0.019665
0.0110743
-0.000120265
-0.0120002
-0.02233
-0.0289741
-0.0306796
-0.0269236
-0.0180619
-0.00527679
0.00958094
0.0242813
0.0365626
0.0444716
0.0466415
0.0424749
0.0322153
0.0168906
-0.00185062
-0.0219856
-0.0413909
-0.0581212
-0.070042
-0.0761709
-0.0763085
-0.0710567
-0.0612929
-0.048749
-0.0179724
-0.0207796
-0.019786
-0.0148735
-0.00518031
0.0090889
0.0280126
0.051117
0.0766036
0.102742
0.127579
0.149118
0.165549
0.175471
0.178079
0.173289
0.161749
0.144756
0.124089
0.101767
0.0797839
0.059857
0.0432286
0.0305451
0.0218395
0.0164112
0.013472
0.0120717
0.0112454
0.0102603
0.00860818
-0.0554155
-0.0606208
-0.0550431
-0.0372216
-0.00656027
0.0356574
0.0872974
0.144805
0.202297
0.254949
0.298356
0.329031
0.344818
0.345128
0.330986
0.30488
0.270385
0.231692
0.193065
0.158284
0.130186
0.110353
0.0989963
0.0950296
0.0963432
0.0992209
0.100963
0.099396
0.0932323
0.0819133
0.0663068
-0.0852927
-0.0917157
-0.0814845
-0.0520661
-0.00330058
0.0625074
0.141078
0.22602
0.307951
0.379462
0.434214
0.467723
0.477878
0.465165
0.432541
0.384988
0.328785
0.270677
0.217008
0.172916
0.141732
0.124663
0.12078
0.127294
0.140104
0.152906
0.161289
0.161991
0.153525
0.13549
0.109971
-0.110057
-0.11858
-0.10654
-0.0706391
-0.0111772
0.0687644
0.163215
0.263647
0.358201
0.437758
0.49485
0.524615
0.525371
0.498769
0.449491
0.384551
0.312276
0.241202
0.178996
0.131495
0.102061
0.0912931
0.0971559
0.115425
0.140455
0.164203
0.180996
0.186802
0.180107
0.160625
0.131339
-0.132107
-0.144861
-0.135345
-0.0997673
-0.0387729
0.0441399
0.141985
0.245052
0.340164
0.417486
0.469256
0.490811
0.481135
0.442926
0.382127
0.307044
0.227132
0.151747
0.0889681
0.0446146
0.0216265
0.0198691
0.0363857
0.0659795
0.102108
0.136044
0.161492
0.174077
0.172442
0.156394
0.129379
-0.151086
-0.169703
-0.166198
-0.136492
-0.0813972
-0.00448259
0.0869665
0.182978
0.270094
0.338613
0.381132
0.393552
0.375559
0.330587
0.265229
0.188249
0.109285
0.0375766
-0.0191914
-0.0558012
-0.0700185
-0.0626773
-0.0373186
0.000466618
0.0439672
0.0847891
0.116708
0.135465
0.140003
0.130205
0.109537
-0.163165
-0.187154
-0.190357
-0.168582
-0.122653
-0.0559631
0.0244635
0.109076
0.184909
0.24294
0.276482
0.282111
0.260051
0.214052
0.150737
0.0785834
0.00665457
-0.0566108
-0.104447
-0.132532
-0.139372
-0.126278
-0.0969339
-0.0567261
-0.0118638
0.0303795
0.0644534
0.086603
0.0961062
0.0929076
0.0800932
-0.162705
-0.188878
-0.196142
-0.180409
-0.142455
-0.0853921
-0.0156638
0.0579829
0.123582
0.173031
0.200449
0.202995
0.181162
0.1386
0.0814635
0.0174281
-0.0454735
-0.0999342
-0.140269
-0.163028
-0.167252
-0.154364
-0.127726
-0.0920104
-0.0524305
-0.0146882
0.0167213
0.0387603
0.0509492
0.0532263
0.0479847
-0.145115
-0.168326
-0.174706
-0.160586
-0.126737
-0.0760071
-0.0141538
0.0510376
0.10894
0.152431
0.176386
0.17839
0.158954
0.121328
0.0708896
0.0142743
-0.0416538
-0.0907201
-0.128181
-0.151191
-0.158971
-0.152661
-0.134914
-0.109357
-0.07997
-0.0507868
-0.0251675
-0.00544672
0.00792254
0.0147351
0.0164825
-0.108964
-0.12368
-0.123888
-0.10676
-0.0731713
-0.0257837
0.0303398
0.0884594
0.139604
0.177671
0.198272
0.199325
0.181229
0.146692
0.100219
0.047379
-0.00604524
-0.0548134
-0.0948263
-0.123493
-0.139849
-0.144433
-0.138963
-0.125918
-0.108074
-0.0879851
-0.0680882
-0.0502407
-0.0351497
-0.0233587
-0.0143786
-0.0565722
-0.0584321
-0.0486617
-0.0257326
0.00926546
0.0538072
0.103555
0.152967
0.195121
0.225081
0.239299
0.236074
0.215698
0.180336
0.133644
0.0802005
0.0248594
-0.0278461
-0.0741838
-0.111526
-0.138473
-0.154795
-0.161231
-0.159203
-0.150505
-0.136573
-0.119315
-0.100454
-0.0812141
-0.0626721
-0.0453438
0.00672282
0.0199655
0.0411008
0.0699891
0.105278
0.144619
0.184541
0.220974
0.249515
0.266668
0.269942
0.258161
0.231589
0.191887
0.141875
0.0851806
0.0257972
-0.0323384
-0.0857226
-0.131555
-0.167902
-0.193744
-0.208914
-0.213969
-0.209999
-0.197713
-0.178888
-0.155451
-0.129295
-0.102162
-0.0754926
0.0736641
0.10191
0.133421
0.166241
0.19882
0.229137
0.254853
0.273714
0.284272
0.284771
0.273992
0.251401
0.217259
0.172664
0.119504
0.0603362
-0.00180086
-0.063632
-0.121913
-0.173678
-0.216474
-0.248528
-0.268854
-0.277282
-0.274393
-0.260451
-0.237352
-0.207423
-0.173241
-0.137223
-0.101606
0.135857
0.176829
0.215916
0.249521
0.27609
0.294178
0.302894
0.302099
0.293526
0.277322
0.253598
0.222407
0.183847
0.138217
0.0861941
0.0289852
-0.031581
-0.0930896
-0.152689
-0.20732
-0.254027
-0.290277
-0.314246
-0.325021
-0.322673
-0.307117
-0.28038
-0.245202
-0.204717
-0.161933
-0.119735
0.184358
0.233823
0.276431
0.307449
0.32563
0.330395
0.322583
0.304287
0.280274
0.252482
0.22213
0.189543
0.154273
0.115406
0.0719953
0.0235217
-0.0297029
-0.0863434
-0.14406
-0.199726
-0.24982
-0.290922
-0.320197
-0.335798
-0.337088
-0.323539
-0.297127
-0.260859
-0.218236
-0.172718
-0.127696
0.210746
0.262755
0.303903
0.329068
0.337699
0.330343
0.309709
0.279998
0.248409
0.218246
0.191326
0.167705
0.145858
0.123167
0.0966506
0.0637452
0.0230333
-0.0253357
-0.0795373
-0.136283
-0.191321
-0.240118
-0.278564
-0.303596
-0.31359
-0.307376
-0.286637
-0.254457
-0.214513
-0.170611
-0.126515
0.20913
0.256556
0.290672
0.306806
0.305465
0.288498
0.26042
0.227166
0.197398
0.175119
0.16207
0.157419
0.158055
0.159283
0.155854
0.143068
0.117793
0.0790931
0.0284339
-0.0305429
-0.092648
-0.152024
-0.203084
-0.24135
-0.264028
-0.269167
-0.258023
-0.233627
-0.199712
-0.160384
-0.119633
0.17862
0.214285
0.235934
0.240059
0.228484
0.204374
0.173781
0.143815
0.123468
0.116712
0.124568
0.144839
0.17255
0.200859
0.222358
0.230458
0.22062
0.191139
0.1434
0.0816028
0.0119901
-0.0582246
-0.122007
-0.173544
-0.208949
-0.225582
-0.224349
-0.208237
-0.180992
-0.147005
-0.110298
0.124923
0.143256
0.148356
0.138318
0.116317
0.0866827
0.0565409
0.0335401
0.0259683
0.0371669
0.0670307
0.111846
0.164882
0.217496
0.260642
0.286429
0.289485
0.267801
0.222978
0.159865
0.0856572
0.00865341
-0.0630532
-0.12275
-0.165892
-0.189543
-0.194564
-0.184015
-0.161651
-0.132095
-0.0991401
0.0597305
0.0584142
0.0455837
0.0210135
-0.0109954
-0.0452734
-0.0742055
-0.0902269
-0.0864609
-0.0605263
-0.0137086
0.0490091
0.119671
0.188579
0.245897
0.283278
0.295229
0.279919
0.239363
0.178963
0.106483
0.0307141
-0.0399139
-0.0985468
-0.140681
-0.163749
-0.168953
-0.159589
-0.139395
-0.113058
-0.0838328
-0.00256302
-0.0217861
-0.0504787
-0.0874596
-0.127759
-0.165812
-0.194129
-0.205758
-0.19551
-0.161989
-0.107379
-0.0373534
0.0397346
0.114106
0.176144
0.217947
0.234577
0.224763
0.190969
0.138836
0.0761056
0.0112599
-0.047828
-0.0950461
-0.126711
-0.141354
-0.140848
-0.128811
-0.108877
-0.0855077
-0.0610993
-0.0492519
-0.0809031
-0.120094
-0.16473
-0.209772
-0.249759
-0.277908
-0.288271
-0.277253
-0.244236
-0.191812
-0.125597
-0.0534295
0.0158189
0.0736769
0.113441
0.131219
0.126466
0.10193
0.0630357
0.016822
-0.0293341
-0.0689262
-0.0973088
-0.112191
-0.113676
-0.104388
-0.0881797
-0.0684098
-0.0489604
-0.0312547
-0.0736983
-0.110405
-0.15301
-0.199081
-0.24408
-0.283118
-0.310545
-0.321648
-0.314103
-0.287768
-0.245131
-0.191085
-0.132202
-0.0757128
-0.0283135
0.00492905
0.0213715
0.0211413
0.00698791
-0.0163425
-0.0430676
-0.0674713
-0.0848971
-0.0925051
-0.0895661
-0.0777857
-0.0603283
-0.041042
-0.0228004
-0.00862853
0.00112247
-0.0759678
-0.110461
-0.149348
-0.190435
-0.230112
-0.264453
-0.289183
-0.300907
-0.298209
-0.281154
-0.251748
-0.213717
-0.171936
-0.13163
-0.0974866
-0.072865
-0.0592603
-0.0561171
-0.0610268
-0.0702862
-0.079682
-0.0853488
-0.0844999
-0.0759361
-0.0601635
-0.0399423
-0.018509
0.000788112
0.0156665
0.024104
0.0266692
-0.0619938
-0.0890242
-0.11907
-0.150492
-0.1808
-0.207175
-0.226804
-0.237503
-0.238466
-0.2298
-0.212867
-0.190125
-0.164713
-0.139919
-0.118587
-0.102623
-0.0926725
-0.0880548
-0.0869494
-0.0868304
-0.0850263
-0.0793169
-0.0683982
-0.0521822
-0.0317865
-0.010143
0.0100784
0.0260567
0.0363833
0.0398876
0.0377054
-0.0410436
-0.0585237
-0.0777473
-0.0977295
-0.117034
-0.133937
-0.146886
-0.154727
-0.157059
-0.153965
-0.146208
-0.13513
-0.122412
-0.109769
-0.0986251
-0.0898499
-0.0836068
-0.0793433
-0.07593
-0.071935
-0.0659628
-0.0569966
-0.0446456
-0.0292902
-0.0120156
0.00495584
0.0196705
0.0303237
0.0362264
0.0367124
0.0332082
0.0842614
0.0986829
0.104657
0.0990518
0.0820665
0.0544639
0.0193251
-0.0192784
-0.0556469
-0.085708
-0.106255
-0.115434
-0.112955
-0.100116
-0.0795652
-0.0548919
-0.0300782
-0.00894245
0.00537508
0.0108341
0.00674389