# vtk DataFile Version 2.0
Func
ASCII
DATASET RECTILINEAR_GRID
DIMENSIONS 51 51 51
X_COORDINATES 51 double
-7.85398
-7.53982
-7.22566
-6.9115
-6.59734
-6.28319
-5.96903
-5.65487
-5.34071
-5.02655
-4.71239
-4.39823
-4.08407
-3.76991
-3.45575
-3.14159
-2.82743
-2.51327
-2.19911
-1.88496
-1.5708
-1.25664
-0.942478
-0.628319
-0.314159
-8.88178e-16
0.314159
0.628319
0.942478
1.25664
1.5708
1.88496
2.19911
2.51327
2.82743
3.14159
3.45575
3.76991
4.08407
4.39823
4.71239
5.02655
5.34071
5.65487
5.96903
6.28319
6.59734
6.9115
7.22566
7.53982
7.85398
Y_COORDINATES 51 double
-7.85398
-7.53982
-7.22566
-6.9115
-6.59734
-6.28319
-5.96903
-5.65487
-5.34071
-5.02655
-4.71239
-4.39823
-4.08407
-3.76991
-3.45575
-3.14159
-2.82743
-2.51327
-2.19911
-1.88496
-1.5708
-1.25664
-0.942478
-0.628319
-0.314159
-8.88178e-16
0.314159
0.628319
0.942478
1.25664
1.5708
1.88496
2.19911
2.51327
2.82743
3.14159
3.45575
3.76991
4.08407
4.39823
4.71239
5.02655
5.34071
5.65487
5.96903
6.28319
6.59734
6.9115
7.22566
7.53982
7.85398
Z_COORDINATES 51 double
-7.85398
-7.53982
-7.22566
-6.9115
-6.59734
-6.28319
-5.96903
-5.65487
-5.34071
-5.02655
-4.71239
-4.39823
-4.08407
-3.76991
-3.45575
-3.14159
-2.82743
-2.51327
-2.19911
-1.88496
-1.5708
-1.25664
-0.942478
-0.628319
-0.314159
-8.88178e-16
0.314159
0.628319
0.942478
1.25664
1.5708
1.88496
2.19911
2.51327
2.82743
3.14159
3.45575
3.76991
4.08407
4.39823
4.71239
5.02655
5.34071
5.65487
5.96903
6.28319
6.59734
6.9115
7.22566
7.53982
7.85398
POINT_DATA 132651
SCALARS data double 1
LOOKUP_TABLE default
-1.84906e-07
-1.99313e-07
-2.14596e-07
-2.30753e-07
-2.47769e-07
-2.65613e-07
-2.84239e-07
-3.03581e-07
-3.23552e-07
-3.44046e-07
-3.6493e-07
-3.8605e-07
-4.07228e-07
-4.28262e-07
-4.48933e-07
-4.69002e-07
-4.88221e-07
-5.0633e-07
-5.23072e-07
-5.38193e-07
-5.51453e-07
-5.62633e-07
-5.71541e-07
-5.78022e-07
-5.81958e-07
-5.83278e-07
-5.81958e-07
-5.78022e-07
-5.71541e-07
-5.62633e-07
-5.51453e-07
-5.38193e-07
-5.23072e-07
-5.0633e-07
-4.88221e-07
-4.69002e-07
-4.48933e-07
-4.28262e-07
-4.07228e-07
-3.8605e-07
-3.6493e-07
-3.44046e-07
-3.23552e-07
-3.03581e-07
-2.84239e-07
-2.65613e-07
-2.47769e-07
-2.30753e-07
-2.14596e-07
-1.99313e-07
-1.84906e-07
-1.9134e-07
-2.0667e-07
-2.22978e-07
-2.40266e-07
-2.58524e-07
-2.77726e-07
-2.97826e-07
-3.18758e-07
-3.40432e-07
-3.62735e-07
-3.85526e-07
-4.08635e-07
-4.31867e-07
-4.55001e-07
-4.77789e-07
-4.99965e-07
-5.21246e-07
-5.41338e-07
-5.59947e-07
-5.76781e-07
-5.91565e-07
-6.04044e-07
-6.13998e-07
-6.21244e-07
-6.25647e-07
-6.27124e-07
-6.25647e-07
-6.21244e-07
-6.13998e-07
-6.04044e-07
-5.91565e-07
-5.76781e-07
-5.59947e-07
-5.41338e-07
-5.21246e-07
-4.99965e-07
-4.77789e-07
-4.55001e-07
-4.31867e-07
-4.08635e-07
-3.85526e-07
-3.62735e-07
-3.40432e-07
-3.18758e-07
-2.97826e-07
-2.77726e-07
-2.58524e-07
-2.40266e-07
-2.22978e-07
-2.0667e-07
-1.9134e-07
-1.97429e-07
-2.13687e-07
-2.31031e-07
-2.4947e-07
-2.69001e-07
-2.89599e-07
-3.11224e-07
-3.33809e-07
-3.57262e-07
-3.81465e-07
-4.06265e-07
-4.31482e-07
-4.56901e-07
-4.82277e-07
-5.07337e-07
-5.3178e-07
-5.55289e-07
-5.7753e-07
-5.98167e-07
-6.16868e-07
-6.33314e-07
-6.47215e-07
-6.58313e-07
-6.66399e-07
-6.71315e-07
-6.72964e-07
-6.71315e-07
-6.66399e-07
-6.58313e-07
-6.47215e-07
-6.33314e-07
-6.16868e-07
-5.98167e-07
-5.7753e-07
-5.55289e-07
-5.3178e-07
-5.07337e-07
-4.82277e-07
-4.56901e-07
-4.31482e-07
-4.06265e-07
-3.81465e-07
-3.57262e-07
-3.33809e-07
-3.11224e-07
-2.89599e-07
-2.69001e-07
-2.4947e-07
-2.31031e-07
-2.13687e-07
-1.97429e-07
-2.03063e-07
-2.20244e-07
-2.38624e-07
-2.58221e-07
-2.79038e-07
-3.01058e-07
-3.24243e-07
-3.48529e-07
-3.73823e-07
-4.00001e-07
-4.26902e-07
-4.54332e-07
-4.82058e-07
-5.0981e-07
-5.37286e-07
-5.64151e-07
-5.90047e-07
-6.146e-07
-6.37425e-07
-6.58144e-07
-6.76394e-07
-6.91838e-07
-7.04182e-07
-7.13182e-07
-7.18657e-07
-7.20494e-07
-7.18657e-07
-7.13182e-07
-7.04182e-07
-6.91838e-07
-6.76394e-07
-6.58144e-07
-6.37425e-07
-6.146e-07
-5.90047e-07
-5.64151e-07
-5.37286e-07
-5.0981e-07
-4.82058e-07
-4.54332e-07
-4.26902e-07
-4.00001e-07
-3.73823e-07
-3.48529e-07
-3.24243e-07
-3.01058e-07
-2.79038e-07
-2.58221e-07
-2.38624e-07
-2.20244e-07
-2.03063e-07
-2.08126e-07
-2.26209e-07
-2.45609e-07
-2.66355e-07
-2.88456e-07
-3.11904e-07
-3.36666e-07
-3.62681e-07
-3.89857e-07
-4.18065e-07
-4.47139e-07
-4.76868e-07
-5.07003e-07
-5.37248e-07
-5.6727e-07
-5.96697e-07
-6.2513e-07
-6.52145e-07
-6.7731e-07
-7.00195e-07
-7.20382e-07
-7.3749e-07
-7.51178e-07
-7.61166e-07
-7.67245e-07
-7.69286e-07
-7.67245e-07
-7.61166e-07
-7.51178e-07
-7.3749e-07
-7.20382e-07
-7.00195e-07
-6.7731e-07
-6.52145e-07
-6.2513e-07
-5.96697e-07
-5.6727e-07
-5.37248e-07
-5.07003e-07
-4.76868e-07
-4.47139e-07
-4.18065e-07
-3.89857e-07
-3.62681e-07
-3.36666e-07
-3.11904e-07
-2.88456e-07
-2.66355e-07
-2.45609e-07
-2.26209e-07
-2.08126e-07
-2.1249e-07
-2.31438e-07
-2.51825e-07
-2.73689e-07
-2.97051e-07
-3.21911e-07
-3.48242e-07
-3.7599e-07
-4.05064e-07
-4.35333e-07
-4.66622e-07
-4.98712e-07
-5.31331e-07
-5.64161e-07
-5.96835e-07
-6.28944e-07
-6.60041e-07
-6.89655e-07
-7.17296e-07
-7.42478e-07
-7.64729e-07
-7.8361e-07
-7.98734e-07
-8.0978e-07
-8.16507e-07
-8.18766e-07
-8.16507e-07
-8.0978e-07
-7.98734e-07
-7.8361e-07
-7.64729e-07
-7.42478e-07
-7.17296e-07
-6.89655e-07
-6.60041e-07
-6.28944e-07
-5.96835e-07
-5.64161e-07
-5.31331e-07
-4.98712e-07
-4.66622e-07
-4.35333e-07
-4.05064e-07
-3.7599e-07
-3.48242e-07
-3.21911e-07
-2.97051e-07
-2.73689e-07
-2.51825e-07
-2.31438e-07
-2.1249e-07
-2.16021e-07
-2.35779e-07
-2.57098e-07
-2.80028e-07
-3.04602e-07
-3.3083e-07
-3.58696e-07
-3.88149e-07
-4.19104e-07
-4.51429e-07
-4.84945e-07
-5.19419e-07
-5.54564e-07
-5.90036e-07
-6.25436e-07
-6.60313e-07
-6.94174e-07
-7.26493e-07
-7.56722e-07
-7.84314e-07
-8.08734e-07
-8.29486e-07
-8.46127e-07
-8.58291e-07
-8.65703e-07
-8.68193e-07
-8.65703e-07
-8.58291e-07
-8.46127e-07
-8.29486e-07
-8.08734e-07
-7.84314e-07
-7.56722e-07
-7.26493e-07
-6.94174e-07
-6.60313e-07
-6.25436e-07
-5.90036e-07
-5.54564e-07
-5.19419e-07
-4.84945e-07
-4.51429e-07
-4.19104e-07
-3.88149e-07
-3.58696e-07
-3.3083e-07
-3.04602e-07
-2.80028e-07
-2.57098e-07
-2.35779e-07
-2.16021e-07
-2.18578e-07
-2.39068e-07
-2.61242e-07
-2.8516e-07
-3.10869e-07
-3.38391e-07
-3.6772e-07
-3.98816e-07
-4.31597e-07
-4.65933e-07
-5.01642e-07
-5.38482e-07
-5.76149e-07
-6.14275e-07
-6.52428e-07
-6.90117e-07
-7.26799e-07
-7.61891e-07
-7.94785e-07
-8.24867e-07
-8.51535e-07
-8.7423e-07
-8.92451e-07
-9.05781e-07
-9.13909e-07
-9.1664e-07
-9.13909e-07
-9.05781e-07
-8.92451e-07
-8.7423e-07
-8.51535e-07
-8.24867e-07
-7.94785e-07
-7.61891e-07
-7.26799e-07
-6.90117e-07
-6.52428e-07
-6.14275e-07
-5.76149e-07
-5.38482e-07
-5.01642e-07
-4.65933e-07
-4.31597e-07
-3.98816e-07
-3.6772e-07
-3.38391e-07
-3.10869e-07
-2.8516e-07
-2.61242e-07
-2.39068e-07
-2.18578e-07
-2.20016e-07
-2.4114e-07
-2.64063e-07
-2.88863e-07
-3.15598e-07
-3.44304e-07
-3.74988e-07
-4.07619e-07
-4.42123e-07
-4.78376e-07
-5.16193e-07
-5.55326e-07
-5.95455e-07
-6.3619e-07
-6.77067e-07
-7.17555e-07
-7.57061e-07
-7.94943e-07
-8.30529e-07
-8.63136e-07
-8.92093e-07
-9.16772e-07
-9.36608e-07
-9.51135e-07
-9.59997e-07
-9.62976e-07
-9.59997e-07
-9.51135e-07
-9.36608e-07
-9.16772e-07
-8.92093e-07
-8.63136e-07
-8.30529e-07
-7.94943e-07
-7.57061e-07
-7.17555e-07
-6.77067e-07
-6.3619e-07
-5.95455e-07
-5.55326e-07
-5.16193e-07
-4.78376e-07
-4.42123e-07
-4.07619e-07
-3.74988e-07
-3.44304e-07
-3.15598e-07
-2.88863e-07
-2.64063e-07
-2.4114e-07
-2.20016e-07
-2.20189e-07
-2.41824e-07
-2.65367e-07
-2.9091e-07
-3.18526e-07
-3.48266e-07
-3.80151e-07
-4.14162e-07
-4.50236e-07
-4.88254e-07
-5.28033e-07
-5.6932e-07
-6.11783e-07
-6.55013e-07
-6.98514e-07
-7.41717e-07
-7.83979e-07
-8.24601e-07
-8.62844e-07
-8.97954e-07
-9.29189e-07
-9.55848e-07
-9.77302e-07
-9.93028e-07
-1.00263e-06
-1.00586e-06
-1.00263e-06
-9.93028e-07
-9.77302e-07
-9.55848e-07
-9.29189e-07
-8.97954e-07
-8.62844e-07
-8.24601e-07
-7.83979e-07
-7.41717e-07
-6.98514e-07
-6.55013e-07
-6.11783e-07
-5.6932e-07
-5.28033e-07
-4.88254e-07
-4.50236e-07
-4.14162e-07
-3.80151e-07
-3.48266e-07
-3.18526e-07
-2.9091e-07
-2.65367e-07
-2.41824e-07
-2.20189e-07
-2.18958e-07
-2.40953e-07
-2.64956e-07
-2.9107e-07
-3.19385e-07
-3.49967e-07
-3.82851e-07
-4.18035e-07
-4.55465e-07
-4.95031e-07
-5.36555e-07
-5.79783e-07
-6.24374e-07
-6.69901e-07
-7.15842e-07
-7.61591e-07
-8.06457e-07
-8.49684e-07
-8.9047e-07
-9.27989e-07
-9.61426e-07
-9.90006e-07
-1.01304e-06
-1.02993e-06
-1.04025e-06
-1.04372e-06
-1.04025e-06
-1.02993e-06
-1.01304e-06
-9.90006e-07
-9.61426e-07
-9.27989e-07
-8.9047e-07
-8.49684e-07
-8.06457e-07
-7.61591e-07
-7.15842e-07
-6.69901e-07
-6.24374e-07
-5.79783e-07
-5.36555e-07
-4.95031e-07
-4.55465e-07
-4.18035e-07
-3.82851e-07
-3.49967e-07
-3.19385e-07
-2.9107e-07
-2.64956e-07
-2.40953e-07
-2.18958e-07
-2.16188e-07
-2.3837e-07
-2.62641e-07
-2.8912e-07
-3.17912e-07
-3.49098e-07
-3.8273e-07
-4.18819e-07
-4.57327e-07
-4.98155e-07
-5.41131e-07
-5.86002e-07
-6.32425e-07
-6.79957e-07
-7.28055e-07
-7.7608e-07
-8.23297e-07
-8.68899e-07
-9.12019e-07
-9.51765e-07
-9.87247e-07
-1.01762e-06
-1.04213e-06
-1.06012e-06
-1.07112e-06
-1.07482e-06
-1.07112e-06
-1.06012e-06
-1.04213e-06
-1.01762e-06
-9.87247e-07
-9.51765e-07
-9.12019e-07
-8.68899e-07
-8.23297e-07
-7.7608e-07
-7.28055e-07
-6.79957e-07
-6.32425e-07
-5.86002e-07
-5.41131e-07
-4.98155e-07
-4.57327e-07
-4.18819e-07
-3.8273e-07
-3.49098e-07
-3.17912e-07
-2.8912e-07
-2.62641e-07
-2.3837e-07
-2.16188e-07
-2.11758e-07
-2.33928e-07
-2.58248e-07
-2.84852e-07
-3.13859e-07
-3.45365e-07
-3.79439e-07
-4.16107e-07
-4.55348e-07
-4.97074e-07
-5.41124e-07
-5.87252e-07
-6.35111e-07
-6.84252e-07
-7.34115e-07
-7.84033e-07
-8.33236e-07
-8.80866e-07
-9.26003e-07
-9.6769e-07
-1.00497e-06
-1.03693e-06
-1.06275e-06
-1.08172e-06
-1.09333e-06
-1.09723e-06
-1.09333e-06
-1.08172e-06
-1.06275e-06
-1.03693e-06
-1.00497e-06
-9.6769e-07
-9.26003e-07
-8.80866e-07
-8.33236e-07
-7.84033e-07
-7.34115e-07
-6.84252e-07
-6.35111e-07
-5.87252e-07
-5.41124e-07
-4.97074e-07
-4.55348e-07
-4.16107e-07
-3.79439e-07
-3.45365e-07
-3.13859e-07
-2.84852e-07
-2.58248e-07
-2.33928e-07
-2.11758e-07
-2.05566e-07
-2.275e-07
-2.51623e-07
-2.78078e-07
-3.06999e-07
-3.38496e-07
-3.72654e-07
-4.09516e-07
-4.49075e-07
-4.91259e-07
-5.35921e-07
-5.8282e-07
-6.31617e-07
-6.81859e-07
-7.32977e-07
-7.84282e-07
-8.34978e-07
-8.84167e-07
-9.30881e-07
-9.74107e-07
-1.01283e-06
-1.04608e-06
-1.07297e-06
-1.09275e-06
-1.10485e-06
-1.10893e-06
-1.10485e-06
-1.09275e-06
-1.07297e-06
-1.04608e-06
-1.01283e-06
-9.74107e-07
-9.30881e-07
-8.84167e-07
-8.34978e-07
-7.84282e-07
-7.32977e-07
-6.81859e-07
-6.31617e-07
-5.8282e-07
-5.35921e-07
-4.91259e-07
-4.49075e-07
-4.09516e-07
-3.72654e-07
-3.38496e-07
-3.06999e-07
-2.78078e-07
-2.51623e-07
-2.275e-07
-2.05566e-07
-1.9753e-07
-2.18987e-07
-2.42639e-07
-2.68643e-07
-2.97141e-07
-3.28259e-07
-3.62094e-07
-3.98706e-07
-4.38102e-07
-4.80229e-07
-5.24951e-07
-5.72044e-07
-6.21174e-07
-6.71895e-07
-7.23634e-07
-7.75694e-07
-8.27258e-07
-8.77403e-07
-9.25124e-07
-9.69365e-07
-1.00907e-06
-1.0432e-06
-1.07084e-06
-1.09119e-06
-1.10365e-06
-1.10785e-06
-1.10365e-06
-1.09119e-06
-1.07084e-06
-1.0432e-06
-1.00907e-06
-9.69365e-07
-9.25124e-07
-8.77403e-07
-8.27258e-07
-7.75694e-07
-7.23634e-07
-6.71895e-07
-6.21174e-07
-5.72044e-07
-5.24951e-07
-4.80229e-07
-4.38102e-07
-3.98706e-07
-3.62094e-07
-3.28259e-07
-2.97141e-07
-2.68643e-07
-2.42639e-07
-2.18987e-07
-1.9753e-07
-1.87601e-07
-2.08319e-07
-2.31209e-07
-2.56432e-07
-2.84142e-07
-3.14472e-07
-3.47533e-07
-3.83398e-07
-4.22091e-07
-4.63573e-07
-5.07727e-07
-5.54343e-07
-6.03102e-07
-6.53569e-07
-7.05177e-07
-7.5723e-07
-8.08906e-07
-8.59269e-07
-9.07294e-07
-9.51899e-07
-9.91989e-07
-1.02651e-06
-1.05449e-06
-1.07511e-06
-1.08774e-06
-1.092e-06
-1.08774e-06
-1.07511e-06
-1.05449e-06
-1.02651e-06
-9.91989e-07
-9.51899e-07
-9.07294e-07
-8.59269e-07
-8.08906e-07
-7.5723e-07
-7.05177e-07
-6.53569e-07
-6.03102e-07
-5.54343e-07
-5.07727e-07
-4.63573e-07
-4.22091e-07
-3.83398e-07
-3.47533e-07
-3.14472e-07
-2.84142e-07
-2.56432e-07
-2.31209e-07
-2.08319e-07
-1.87601e-07
-1.75759e-07
-1.95467e-07
-2.17287e-07
-2.41383e-07
-2.67913e-07
-2.97019e-07
-3.28819e-07
-3.63399e-07
-4.00797e-07
-4.40988e-07
-4.83874e-07
-5.29263e-07
-5.76855e-07
-6.26233e-07
-6.76848e-07
-7.28015e-07
-7.78923e-07
-8.2864e-07
-8.7614e-07
-9.20334e-07
-9.60116e-07
-9.94415e-07
-1.02225e-06
-1.04278e-06
-1.05536e-06
-1.0596e-06
-1.05536e-06
-1.04278e-06
-1.02225e-06
-9.94415e-07
-9.60116e-07
-9.20334e-07
-8.7614e-07
-8.2864e-07
-7.78923e-07
-7.28015e-07
-6.76848e-07
-6.26233e-07
-5.76855e-07
-5.29263e-07
-4.83874e-07
-4.40988e-07
-4.00797e-07
-3.63399e-07
-3.28819e-07
-2.97019e-07
-2.67913e-07
-2.41383e-07
-2.17287e-07
-1.95467e-07
-1.75759e-07
-1.62026e-07
-1.80446e-07
-2.0088e-07
-2.23491e-07
-2.48436e-07
-2.75862e-07
-3.05892e-07
-3.38618e-07
-3.74091e-07
-4.123e-07
-4.53165e-07
-4.96514e-07
-5.42072e-07
-5.89445e-07
-6.38111e-07
-6.87415e-07
-7.36569e-07
-7.84666e-07
-8.307e-07
-8.73601e-07
-9.12275e-07
-9.45659e-07
-9.72778e-07
-9.92795e-07
-1.00507e-06
-1.00921e-06
-1.00507e-06
-9.92795e-07
-9.72778e-07
-9.45659e-07
-9.12275e-07
-8.73601e-07
-8.307e-07
-7.84666e-07
-7.36569e-07
-6.87415e-07
-6.38111e-07
-5.89445e-07
-5.42072e-07
-4.96514e-07
-4.53165e-07
-4.123e-07
-3.74091e-07
-3.38618e-07
-3.05892e-07
-2.75862e-07
-2.48436e-07
-2.23491e-07
-2.0088e-07
-1.80446e-07
-1.62026e-07
-1.4646e-07
-1.63318e-07
-1.82051e-07
-2.02817e-07
-2.2577e-07
-2.51054e-07
-2.78792e-07
-3.09083e-07
-3.41983e-07
-3.77494e-07
-4.15553e-07
-4.5601e-07
-4.98617e-07
-5.43014e-07
-5.88715e-07
-6.35106e-07
-6.81442e-07
-7.26863e-07
-7.70407e-07
-8.11048e-07
-8.47735e-07
-8.7944e-07
-9.05218e-07
-9.24261e-07
-9.35947e-07
-9.39887e-07
-9.35947e-07
-9.24261e-07
-9.05218e-07
-8.7944e-07
-8.47735e-07
-8.11048e-07
-7.70407e-07
-7.26863e-07
-6.81442e-07
-6.35106e-07
-5.88715e-07
-5.43014e-07
-4.98617e-07
-4.5601e-07
-4.15553e-07
-3.77494e-07
-3.41983e-07
-3.09083e-07
-2.78792e-07
-2.51054e-07
-2.2577e-07
-2.02817e-07
-1.82051e-07
-1.63318e-07
-1.4646e-07
-1.29166e-07
-1.44195e-07
-1.60922e-07
-1.79494e-07
-2.00056e-07
-2.22743e-07
-2.47678e-07
-2.74956e-07
-3.04636e-07
-3.36733e-07
-3.71196e-07
-4.07899e-07
-4.46626e-07
-4.87054e-07
-5.28745e-07
-5.71139e-07
-6.13556e-07
-6.552e-07
-6.95184e-07
-7.32553e-07
-7.66326e-07
-7.95544e-07
-8.19319e-07
-8.36894e-07
-8.47684e-07
-8.51323e-07
-8.47684e-07
-8.36894e-07
-8.19319e-07
-7.95544e-07
-7.66326e-07
-7.32553e-07
-6.95184e-07
-6.552e-07
-6.13556e-07
-5.71139e-07
-5.28745e-07
-4.87054e-07
-4.46626e-07
-4.07899e-07
-3.71196e-07
-3.36733e-07
-3.04636e-07
-2.74956e-07
-2.47678e-07
-2.22743e-07
-2.00056e-07
-1.79494e-07
-1.60922e-07
-1.44195e-07
-1.29166e-07
-1.10291e-07
-1.23243e-07
-1.37677e-07
-1.53726e-07
-1.7152e-07
-1.91182e-07
-2.12825e-07
-2.36538e-07
-2.6238e-07
-2.90372e-07
-3.20475e-07
-3.52588e-07
-3.86527e-07
-4.22013e-07
-4.58666e-07
-4.95995e-07
-5.33398e-07
-5.70172e-07
-6.05525e-07
-6.38605e-07
-6.68534e-07
-6.94449e-07
-7.15553e-07
-7.31162e-07
-7.40749e-07
-7.43983e-07
-7.40749e-07
-7.31162e-07
-7.15553e-07
-6.94449e-07
-6.68534e-07
-6.38605e-07
-6.05525e-07
-5.70172e-07
-5.33398e-07
-4.95995e-07
-4.58666e-07
-4.22013e-07
-3.86527e-07
-3.52588e-07
-3.20475e-07
-2.90372e-07
-2.6238e-07
-2.36538e-07
-2.12825e-07
-1.91182e-07
-1.7152e-07
-1.53726e-07
-1.37677e-07
-1.23243e-07
-1.10291e-07
-9.00213e-08
-1.00674e-07
-1.12559e-07
-1.25789e-07
-1.40474e-07
-1.56722e-07
-1.74629e-07
-1.94273e-07
-2.15711e-07
-2.38962e-07
-2.64002e-07
-2.90749e-07
-3.19056e-07
-3.48693e-07
-3.79345e-07
-4.10603e-07
-4.41962e-07
-4.7283e-07
-5.02537e-07
-5.30362e-07
-5.55559e-07
-5.77394e-07
-5.95186e-07
-6.08352e-07
-6.16441e-07
-6.19169e-07
-6.16441e-07
-6.08352e-07
-5.95186e-07
-5.77394e-07
-5.55559e-07
-5.30362e-07
-5.02537e-07
-4.7283e-07
-4.41962e-07
-4.10603e-07
-3.79345e-07
-3.48693e-07
-3.19056e-07
-2.90749e-07
-2.64002e-07
-2.38962e-07
-2.15711e-07
-1.94273e-07
-1.74629e-07
-1.56722e-07
-1.40474e-07
-1.25789e-07
-1.12559e-07
-1.00674e-07
-9.00213e-08
-6.8585e-08
-7.67497e-08
-8.58669e-08
-9.60248e-08
-1.07311e-07
-1.1981e-07
-1.33599e-07
-1.48742e-07
-1.65284e-07
-1.83244e-07
-2.02607e-07
-2.23313e-07
-2.45249e-07
-2.68242e-07
-2.92047e-07
-3.16346e-07
-3.40749e-07
-3.64792e-07
-3.87951e-07
-4.0966e-07
-4.29332e-07
-4.4639e-07
-4.60296e-07
-4.70591e-07
-4.76917e-07
-4.79052e-07
-4.76917e-07
-4.70591e-07
-4.60296e-07
-4.4639e-07
-4.29332e-07
-4.0966e-07
-3.87951e-07
-3.64792e-07
-3.40749e-07
-3.16346e-07
-2.92047e-07
-2.68242e-07
-2.45249e-07
-2.23313e-07
-2.02607e-07
-1.83244e-07
-1.65284e-07
-1.48742e-07
-1.33599e-07
-1.1981e-07
-1.07311e-07
-9.60248e-08
-8.58669e-08
-7.67497e-08
-6.8585e-08
-4.62417e-08
-5.17703e-08
-5.79477e-08
-6.48347e-08
-7.2492e-08
-8.0978e-08
-9.03464e-08
-1.00642e-07
-1.11898e-07
-1.24128e-07
-1.37324e-07
-1.51446e-07
-1.66419e-07
-1.82125e-07
-1.98398e-07
-2.15022e-07
-2.31728e-07
-2.48199e-07
-2.64075e-07
-2.78965e-07
-2.92465e-07
-3.04176e-07
-3.13727e-07
-3.20799e-07
-3.25146e-07
-3.26613e-07
-3.25146e-07
-3.20799e-07
-3.13727e-07
-3.04176e-07
-2.92465e-07
-2.78965e-07
-2.64075e-07
-2.48199e-07
-2.31728e-07
-2.15022e-07
-1.98398e-07
-1.82125e-07
-1.66419e-07
-1.51446e-07
-1.37324e-07
-1.24128e-07
-1.11898e-07
-1.00642e-07
-9.03464e-08
-8.0978e-08
-7.2492e-08
-6.48347e-08
-5.79477e-08
-5.17703e-08
-4.62417e-08
-2.32783e-08
-2.60686e-08
-2.91876e-08
-3.26662e-08
-3.65355e-08
-4.08253e-08
-4.55633e-08
-5.07727e-08
-5.64704e-08
-6.26642e-08
-6.93501e-08
-7.65086e-08
-8.41021e-08
-9.20711e-08
-1.00332e-07
-1.08774e-07
-1.17262e-07
-1.25634e-07
-1.33707e-07
-1.41281e-07
-1.4815e-07
-1.5411e-07
-1.58972e-07
-1.62573e-07
-1.64787e-07
-1.65534e-07
-1.64787e-07
-1.62573e-07
-1.58972e-07
-1.5411e-07
-1.4815e-07
-1.41281e-07
-1.33707e-07
-1.25634e-07
-1.17262e-07
-1.08774e-07
-1.00332e-07
-9.20711e-08
-8.41021e-08
-7.65086e-08
-6.93501e-08
-6.26642e-08
-5.64704e-08
-5.07727e-08
-4.55633e-08
-4.08253e-08
-3.65355e-08
-3.26662e-08
-2.91876e-08
-2.60686e-08
-2.32783e-08
-6.59608e-23
-7.38741e-23
-8.27208e-23
-9.25888e-23
-1.03566e-22
-1.15739e-22
-1.29185e-22
-1.43972e-22
-1.60146e-22
-1.77732e-22
-1.96718e-22
-2.17049e-22
-2.3862e-22
-2.6126e-22
-2.84733e-22
-3.08726e-22
-3.32852e-22
-3.56651e-22
-3.79601e-22
-4.01138e-22
-4.20672e-22
-4.37623e-22
-4.51452e-22
-4.61694e-22
-4.6799e-22
-4.70115e-22
-4.6799e-22
-4.61694e-22
-4.51452e-22
-4.37623e-22
-4.20672e-22
-4.01138e-22
-3.79601e-22
-3.56651e-22
-3.32852e-22
-3.08726e-22
-2.84733e-22
-2.6126e-22
-2.3862e-22
-2.17049e-22
-1.96718e-22
-1.77732e-22
-1.60146e-22
-1.43972e-22
-1.29185e-22
-1.15739e-22
-1.03566e-22
-9.25888e-23
-8.27208e-23
-7.38741e-23
-6.59608e-23
2.32783e-08
2.60686e-08
2.91876e-08
3.26662e-08
3.65355e-08
4.08253e-08
4.55633e-08
5.07727e-08
5.64704e-08
6.26642e-08
6.93501e-08
7.65086e-08
8.41021e-08
9.20711e-08
1.00332e-07
1.08774e-07
1.17262e-07
1.25634e-07
1.33707e-07
1.41281e-07
1.4815e-07
1.5411e-07
1.58972e-07
1.62573e-07
1.64787e-07
1.65534e-07
1.64787e-07
1.62573e-07
1.58972e-07
1.5411e-07
1.4815e-07
1.41281e-07
1.33707e-07
1.25634e-07
1.17262e-07
1.08774e-07
1.00332e-07
9.20711e-08
8.41021e-08
7.65086e-08
6.93501e-08
6.26642e-08
5.64704e-08
5.07727e-08
4.55633e-08
4.08253e-08
3.65355e-08
3.26662e-08
2.91876e-08
2.60686e-08
2.32783e-08
4.62417e-08
5.17703e-08
5.79477e-08
6.48347e-08
7.2492e-08
8.0978e-08
9.03464e-08
1.00642e-07
1.11898e-07
1.24128e-07
1.37324e-07
1.51446e-07
1.66419e-07
1.82125e-07
1.98398e-07
2.15022e-07
2.31728e-07
2.48199e-07
2.64075e-07
2.78965e-07
2.92465e-07
3.04176e-07
3.13727e-07
3.20799e-07
3.25146e-07
3.26613e-07
3.25146e-07
3.20799e-07
3.13727e-07
3.04176e-07
2.92465e-07
2.78965e-07
2.64075e-07
2.48199e-07
2.31728e-07
2.15022e-07
1.98398e-07
1.82125e-07
1.66419e-07
1.51446e-07
1.37324e-07
1.24128e-07
1.11898e-07
1.00642e-07
9.03464e-08
8.0978e-08
7.2492e-08
6.48347e-08
5.79477e-08
5.17703e-08
4.62417e-08
6.8585e-08
7.67497e-08
8.58669e-08
9.60248e-08
1.07311e-07
1.1981e-07
1.33599e-07
1.48742e-07
1.65284e-07
1.83244e-07
2.02607e-07
2.23313e-07
2.45249e-07
2.68242e-07
2.92047e-07
3.16346e-07
3.40749e-07
3.64792e-07
3.87951e-07
4.0966e-07
4.29332e-07
4.4639e-07
4.60296e-07
4.70591e-07
4.76917e-07
4.79052e-07
4.76917e-07
4.70591e-07
4.60296e-07
4.4639e-07
4.29332e-07
4.0966e-07
3.87951e-07
3.64792e-07
3.40749e-07
3.16346e-07
2.92047e-07
2.68242e-07
2.45249e-07
2.23313e-07
2.02607e-07
1.83244e-07
1.65284e-07
1.48742e-07
1.33599e-07
1.1981e-07
1.07311e-07
9.60248e-08
8.58669e-08
7.67497e-08
6.8585e-08
9.00213e-08
1.00674e-07
1.12559e-07
1.25789e-07
1.40474e-07
1.56722e-07
1.74629e-07
1.94273e-07
2.15711e-07
2.38962e-07
2.64002e-07
2.90749e-07
3.19056e-07
3.48693e-07
3.79345e-07
4.10603e-07
4.41962e-07
4.7283e-07
5.02537e-07
5.30362e-07
5.55559e-07
5.77394e-07
5.95186e-07
6.08352e-07
6.16441e-07
6.19169e-07
6.16441e-07
6.08352e-07
5.95186e-07
5.77394e-07
5.55559e-07
5.30362e-07
5.02537e-07
4.7283e-07
4.41962e-07
4.10603e-07
3.79345e-07
3.48693e-07
3.19056e-07
2.90749e-07
2.64002e-07
2.38962e-07
2.15711e-07
1.94273e-07
1.74629e-07
1.56722e-07
1.40474e-07
1.25789e-07
1.12559e-07
1.00674e-07
9.00213e-08
1.10291e-07
1.23243e-07
1.37677e-07
1.53726e-07
1.7152e-07
1.91182e-07
2.12825e-07
2.36538e-07
2.6238e-07
2.90372e-07
3.20475e-07
3.52588e-07
3.86527e-07
4.22013e-07
4.58666e-07
4.95995e-07
5.33398e-07
5.70172e-07
6.05525e-07
6.38605e-07
6.68534e-07
6.94449e-07
7.15553e-07
7.31162e-07
7.40749e-07
7.43983e-07
7.40749e-07
7.31162e-07
7.15553e-07
6.94449e-07
6.68534e-07
6.38605e-07
6.05525e-07
5.70172e-07
5.33398e-07
4.95995e-07
4.58666e-07
4.22013e-07
3.86527e-07
3.52588e-07
3.20475e-07
2.90372e-07
2.6238e-07
2.36538e-07
2.12825e-07
1.91182e-07
1.7152e-07
1.53726e-07
1.37677e-07
1.23243e-07
1.10291e-07
1.29166e-07
1.44195e-07
1.60922e-07
1.79494e-07
2.00056e-07
2.22743e-07
2.47678e-07
2.74956e-07
3.04636e-07
3.36733e-07
3.71196e-07
4.07899e-07
4.46626e-07
4.87054e-07
5.28745e-07
5.71139e-07
6.13556e-07
6.552e-07
6.95184e-07
7.32553e-07
7.66326e-07
7.95544e-07
8.19319e-07
8.36894e-07
8.47684e-07
8.51323e-07
8.47684e-07
8.36894e-07
8.19319e-07
7.95544e-07
7.66326e-07
7.32553e-07
6.95184e-07
6.552e-07
6.13556e-07
5.71139e-07
5.28745e-07
4.87054e-07
4.46626e-07
4.07899e-07
3.71196e-07
3.36733e-07
3.04636e-07
2.74956e-07
2.47678e-07
2.22743e-07
2.00056e-07
1.79494e-07
1.60922e-07
1.44195e-07
1.29166e-07
1.4646e-07
1.63318e-07
1.82051e-07
2.02817e-07
2.2577e-07
2.51054e-07
2.78792e-07
3.09083e-07
3.41983e-07
3.77494e-07
4.15553e-07
4.5601e-07
4.98617e-07
5.43014e-07
5.88715e-07
6.35106e-07
6.81442e-07
7.26863e-07
7.70407e-07
8.11048e-07
8.47735e-07
8.7944e-07
9.05218e-07
9.24261e-07
9.35947e-07
9.39887e-07
9.35947e-07
9.24261e-07
9.05218e-07
8.7944e-07
8.47735e-07
8.11048e-07
7.70407e-07
7.26863e-07
6.81442e-07
6.35106e-07
5.88715e-07
5.43014e-07
4.98617e-07
4.5601e-07
4.15553e-07
3.77494e-07
3.41983e-07
3.09083e-07
2.78792e-07
2.51054e-07
2.2577e-07
2.02817e-07
1.82051e-07
1.63318e-07
1.4646e-07
1.62026e-07
1.80446e-07
2.0088e-07
2.23491e-07
2.48436e-07
2.75862e-07
3.05892e-07
3.38618e-07
3.74091e-07
4.123e-07
4.53165e-07
4.96514e-07
5.42072e-07
5.89445e-07
6.38111e-07
6.87415e-07
7.36569e-07
7.84666e-07
8.307e-07
8.73601e-07
9.12275e-07
9.45659e-07
9.72778e-07
9.92795e-07
1.00507e-06
1.00921e-06
1.00507e-06
9.92795e-07
9.72778e-07
9.45659e-07
9.12275e-07
8.73601e-07
8.307e-07
7.84666e-07
7.36569e-07
6.87415e-07
6.38111e-07
5.89445e-07
5.42072e-07
4.96514e-07
4.53165e-07
4.123e-07
3.74091e-07
3.38618e-07
3.05892e-07
2.75862e-07
2.48436e-07
2.23491e-07
2.0088e-07
1.80446e-07
1.62026e-07
1.75759e-07
1.95467e-07
2.17287e-07
2.41383e-07
2.67913e-07
2.97019e-07
3.28819e-07
3.63399e-07
4.00797e-07
4.40988e-07
4.83874e-07
5.29263e-07
5.76855e-07
6.26233e-07
6.76848e-07
7.28015e-07
7.78923e-07
8.2864e-07
8.7614e-07
9.20334e-07
9.60116e-07
9.94415e-07
1.02225e-06
1.04278e-06
1.05536e-06
1.0596e-06
1.05536e-06
1.04278e-06
1.02225e-06
9.94415e-07
9.60116e-07
9.20334e-07
8.7614e-07
8.2864e-07
7.78923e-07
7.28015e-07
6.76848e-07
6.26233e-07
5.76855e-07
5.29263e-07
4.83874e-07
4.40988e-07
4.00797e-07
3.63399e-07
3.28819e-07
2.97019e-07
2.67913e-07
2.41383e-07
2.17287e-07
1.95467e-07
1.75759e-07
1.87601e-07
2.08319e-07
2.31209e-07
2.56432e-07
2.84142e-07
3.14472e-07
3.47533e-07
3.83398e-07
4.22091e-07
4.63573e-07
5.07727e-07
5.54343e-07
6.03102e-07
6.53569e-07
7.05177e-07
7.5723e-07
8.08906e-07
8.59269e-07
9.07294e-07
9.51899e-07
9.91989e-07
1.02651e-06
1.05449e-06
1.07511e-06
1.08774e-06
1.092e-06
1.08774e-06
1.07511e-06
1.05449e-06
1.02651e-06
9.91989e-07
9.51899e-07
9.07294e-07
8.59269e-07
8.08906e-07
7.5723e-07
7.05177e-07
6.53569e-07
6.03102e-07
5.54343e-07
5.07727e-07
4.63573e-07
4.22091e-07
3.83398e-07
3.47533e-07
3.14472e-07
2.84142e-07
2.56432e-07
2.31209e-07
2.08319e-07
1.87601e-07
1.9753e-07
2.18987e-07
2.42639e-07
2.68643e-07
2.97141e-07
3.28259e-07
3.62094e-07
3.98706e-07
4.38102e-07
4.80229e-07
5.24951e-07
5.72044e-07
6.21174e-07
6.71895e-07
7.23634e-07
7.75694e-07
8.27258e-07
8.77403e-07
9.25124e-07
9.69365e-07
1.00907e-06
1.0432e-06
1.07084e-06
1.09119e-06
1.10365e-06
1.10785e-06
1.10365e-06
1.09119e-06
1.07084e-06
1.0432e-06
1.00907e-06
9.69365e-07
9.25124e-07
8.77403e-07
8.27258e-07
7.75694e-07
7.23634e-07
6.71895e-07
6.21174e-07
5.72044e-07
5.24951e-07
4.80229e-07
4.38102e-07
3.98706e-07
3.62094e-07
3.28259e-07
2.97141e-07
2.68643e-07
2.42639e-07
2.18987e-07
1.9753e-07
2.05566e-07
2.275e-07
2.51623e-07
2.78078e-07
3.06999e-07
3.38496e-07
3.72654e-07
4.09516e-07
4.49075e-07
4.91259e-07
5.35921e-07
5.8282e-07
6.31617e-07
6.81859e-07
7.32977e-07
7.84282e-07
8.34978e-07
8.84167e-07
9.30881e-07
9.74107e-07
1.01283e-06
1.04608e-06
1.07297e-06
1.09275e-06
1.10485e-06
1.10893e-06
1.10485e-06
1.09275e-06
1.07297e-06
1.04608e-06
1.01283e-06
9.74107e-07
9.30881e-07
8.84167e-07
8.34978e-07
7.84282e-07
7.32977e-07
6.81859e-07
6.31617e-07
5.8282e-07
5.35921e-07
4.91259e-07
4.49075e-07
4.09516e-07
3.72654e-07
3.38496e-07
3.06999e-07
2.78078e-07
2.51623e-07
2.275e-07
2.05566e-07
2.11758e-07
2.33928e-07
2.58248e-07
2.84852e-07
3.13859e-07
3.45365e-07
3.79439e-07
4.16107e-07
4.55348e-07
4.97074e-07
5.41124e-07
5.87252e-07
6.35111e-07
6.84252e-07
7.34115e-07
7.84033e-07
8.33236e-07
8.80866e-07
9.26003e-07
9.6769e-07
1.00497e-06
1.03693e-06
1.06275e-06
1.08172e-06
1.09333e-06
1.09723e-06
1.09333e-06
1.08172e-06
1.06275e-06
1.03693e-06
1.00497e-06
9.6769e-07
9.26003e-07
8.80866e-07
8.33236e-07
7.84033e-07
7.34115e-07
6.84252e-07
6.35111e-07
5.87252e-07
5.41124e-07
4.97074e-07
4.55348e-07
4.16107e-07
3.79439e-07
3.45365e-07
3.13859e-07
2.84852e-07
2.58248e-07
2.33928e-07
2.11758e-07
2.16188e-07
2.3837e-07
2.62641e-07
2.8912e-07
3.17912e-07
3.49098e-07
3.8273e-07
4.18819e-07
4.57327e-07
4.98155e-07
5.41131e-07
5.86002e-07
6.32425e-07
6.79957e-07
7.28055e-07
7.7608e-07
8.23297e-07
8.68899e-07
9.12019e-07
9.51765e-07
9.87247e-07
1.01762e-06
1.04213e-06
1.06012e-06
1.07112e-06
1.07482e-06
1.07112e-06
1.06012e-06
1.04213e-06
1.01762e-06
9.87247e-07
9.51765e-07
9.12019e-07
8.68899e-07
8.23297e-07
7.7608e-07
7.28055e-07
6.79957e-07
6.32425e-07
5.86002e-07
5.41131e-07
4.98155e-07
4.57327e-07
4.18819e-07
3.8273e-07
3.49098e-07
3.17912e-07
2.8912e-07
2.62641e-07
2.3837e-07
2.16188e-07
2.18958e-07
2.40953e-07
2.64956e-07
2.9107e-07
3.19385e-07
3.49967e-07
3.82851e-07
4.18035e-07
4.55465e-07
4.95031e-07
5.36555e-07
5.79783e-07
6.24374e-07
6.69901e-07
7.15842e-07
7.61591e-07
8.06457e-07
8.49684e-07
8.9047e-07
9.27989e-07
9.61426e-07
9.90006e-07
1.01304e-06
1.02993e-06
1.04025e-06
1.04372e-06
1.04025e-06
1.02993e-06
1.01304e-06
9.90006e-07
9.61426e-07
9.27989e-07
8.9047e-07
8.49684e-07
8.06457e-07
7.61591e-07
7.15842e-07
6.69901e-07
6.24374e-07
5.79783e-07
5.36555e-07
4.95031e-07
4.55465e-07
4.18035e-07
3.82851e-07
3.49967e-07
3.19385e-07
2.9107e-07
2.64956e-07
2.40953e-07
2.18958e-07
2.20189e-07
2.41824e-07
2.65367e-07
2.9091e-07
3.18526e-07
3.48266e-07
3.80151e-07
4.14162e-07
4.50236e-07
4.88254e-07
5.28033e-07
5.6932e-07
6.11783e-07
6.55013e-07
6.98514e-07
7.41717e-07
7.83979e-07
8.24601e-07
8.62844e-07
8.97954e-07
9.29189e-07
9.55848e-07
9.77302e-07
9.93028e-07
1.00263e-06
1.00586e-06
1.00263e-06
9.93028e-07
9.77302e-07
9.55848e-07
9.29189e-07
8.97954e-07
8.62844e-07
8.24601e-07
7.83979e-07
7.41717e-07
6.98514e-07
6.55013e-07
6.11783e-07
5.6932e-07
5.28033e-07
4.88254e-07
4.50236e-07
4.14162e-07
3.80151e-07
3.48266e-07
3.18526e-07
2.9091e-07
2.65367e-07
2.41824e-07
2.20189e-07
2.20016e-07
2.4114e-07
2.64063e-07
2.88863e-07
3.15598e-07
3.44304e-07
3.74988e-07
4.07619e-07
4.42123e-07
4.78376e-07
5.16193e-07
5.55326e-07
5.95455e-07
6.3619e-07
6.77067e-07
7.17555e-07
7.57061e-07
7.94943e-07
8.30529e-07
8.63136e-07
8.92093e-07
9.16772e-07
9.36608e-07
9.51135e-07
9.59997e-07
9.62976e-07
9.59997e-07
9.51135e-07
9.36608e-07
9.16772e-07
8.92093e-07
8.63136e-07
8.30529e-07
7.94943e-07
7.57061e-07
7.17555e-07
6.77067e-07
6.3619e-07
5.95455e-07
5.55326e-07
5.16193e-07
4.78376e-07
4.42123e-07
4.07619e-07
3.74988e-07
3.44304e-07
3.15598e-07
2.88863e-07
2.64063e-07
2.4114e-07
2.20016e-07
2.18578e-07
2.39068e-07
2.61242e-07
2.8516e-07
3.10869e-07
3.38391e-07
3.6772e-07
3.98816e-07
4.31597e-07
4.65933e-07
5.01642e-07
5.38482e-07
5.76149e-07
6.14275e-07
6.52428e-07
6.90117e-07
7.26799e-07
7.61891e-07
7.94785e-07
8.24867e-07
8.51535e-07
8.7423e-07
8.92451e-07
9.05781e-07
9.13909e-07
9.1664e-07
9.13909e-07
9.05781e-07
8.92451e-07
8.7423e-07
8.51535e-07
8.24867e-07
7.94785e-07
7.61891e-07
7.26799e-07
6.90117e-07
6.52428e-07
6.14275e-07
5.76149e-07
5.38482e-07
5.01642e-07
4.65933e-07
4.31597e-07
3.98816e-07
3.6772e-07
3.38391e-07
3.10869e-07
2.8516e-07
2.61242e-07
2.39068e-07
2.18578e-07
2.16021e-07
2.35779e-07
2.57098e-07
2.80028e-07
3.04602e-07
3.3083e-07
3.58696e-07
3.88149e-07
4.19104e-07
4.51429e-07
4.84945e-07
5.19419e-07
5.54564e-07
5.90036e-07
6.25436e-07
6.60313e-07
6.94174e-07
7.26493e-07
7.56722e-07
7.84314e-07
8.08734e-07
8.29486e-07
8.46127e-07
8.58291e-07
8.65703e-07
8.68193e-07
8.65703e-07
8.58291e-07
8.46127e-07
8.29486e-07
8.08734e-07
7.84314e-07
7.56722e-07
7.26493e-07
6.94174e-07
6.60313e-07