# vtk DataFile Version 2.0
Func
ASCII
DATASET RECTILINEAR_GRID
DIMENSIONS 51 51 51
X_COORDINATES 51 double
-9.80392
-9.41176
-9.01961
-8.62745
-8.23529
-7.84314
-7.45098
-7.05882
-6.66667
-6.27451
-5.88235
-5.4902
-5.09804
-4.70588
-4.31373
-3.92157
-3.52941
-3.13725
-2.7451
-2.35294
-1.96078
-1.56863
-1.17647
-0.784314
-0.392157
0
0.392157
0.784314
1.17647
1.56863
1.96078
2.35294
2.7451
3.13725
3.52941
3.92157
4.31373
4.70588
5.09804
5.4902
5.88235
6.27451
6.66667
7.05882
7.45098
7.84314
8.23529
8.62745
9.01961
9.41176
9.80392
Y_COORDINATES 51 double
-9.80392
-9.41176
-9.01961
-8.62745
-8.23529
-7.84314
-7.45098
-7.05882
-6.66667
-6.27451
-5.88235
-5.4902
-5.09804
-4.70588
-4.31373
-3.92157
-3.52941
-3.13725
-2.7451
-2.35294
-1.96078
-1.56863
-1.17647
-0.784314
-0.392157
0
0.392157
0.784314
1.17647
1.56863
1.96078
2.35294
2.7451
3.13725
3.52941
3.92157
4.31373
4.70588
5.09804
5.4902
5.88235
6.27451
6.66667
7.05882
7.45098
7.84314
8.23529
8.62745
9.01961
9.41176
9.80392
Z_COORDINATES 51 double
-9.80392
-9.41176
-9.01961
-8.62745
-8.23529
-7.84314
-7.45098
-7.05882
-6.66667
-6.27451
-5.88235
-5.4902
-5.09804
-4.70588
-4.31373
-3.92157
-3.52941
-3.13725
-2.7451
-2.35294
-1.96078
-1.56863
-1.17647
-0.784314
-0.392157
0
0.392157
0.784314
1.17647
1.56863
1.96078
2.35294
2.7451
3.13725
3.52941
3.92157
4.31373
4.70588
5.09804
5.4902
5.88235
6.27451
6.66667
7.05882
7.45098
7.84314
8.23529
8.62745
9.01961
9.41176
9.80392
POINT_DATA 132651
SCALARS data double 1
LOOKUP_TABLE default
-8.35613e-05
-8.61204e-05
-8.84736e-05
-9.04991e-05
-9.20961e-05
-9.31918e-05
-9.37453e-05
-9.37493e-05
-9.32293e-05
-9.2241e-05
-9.08655e-05
-8.92027e-05
-8.73643e-05
-8.54664e-05
-8.36217e-05
-8.19332e-05
-8.04885e-05
-7.93558e-05
-7.85806e-05
-7.81847e-05
-7.81661e-05
-7.85007e-05
-7.91437e-05
-8.00338e-05
-8.10958e-05
-8.22467e-05
-8.33977e-05
-8.44596e-05
-8.53497e-05
-8.59927e-05
-8.63273e-05
-8.63087e-05
-8.59128e-05
-8.51376e-05
-8.40049e-05
-8.25602e-05
-8.08717e-05
-7.9027e-05
-7.71291e-05
-7.52907e-05
-7.36279e-05
-7.22524e-05
-7.12641e-05
-7.07441e-05
-7.07481e-05
-7.13016e-05
-7.23974e-05
-7.39943e-05
-7.60198e-05
-7.8373e-05
-8.09321e-05
-8.35173e-05
-8.59891e-05
-8.82573e-05
-9.02009e-05
-9.17208e-05
-9.27452e-05
-9.3234e-05
-9.31805e-05
-9.26112e-05
-9.1582e-05
-9.01747e-05
-8.84892e-05
-8.6638e-05
-8.4737e-05
-8.28997e-05
-8.1229e-05
-7.98131e-05
-7.87197e-05
-7.79948e-05
-7.76594e-05
-7.77113e-05
-7.81249e-05
-7.88549e-05
-7.98376e-05
-8.09977e-05
-8.22467e-05
-8.34957e-05
-8.46559e-05
-8.56385e-05
-8.63685e-05
-8.67821e-05
-8.6834e-05
-8.64986e-05
-8.57737e-05
-8.46804e-05
-8.32644e-05
-8.15937e-05
-7.97564e-05
-7.78554e-05
-7.60042e-05
-7.43187e-05
-7.29114e-05
-7.18822e-05
-7.13129e-05
-7.12594e-05
-7.17482e-05
-7.27726e-05
-7.42925e-05
-7.62362e-05
-7.85043e-05
-8.09761e-05
-8.343e-05
-8.57288e-05
-8.78282e-05
-8.96104e-05
-9.09783e-05
-9.18627e-05
-9.22249e-05
-9.20603e-05
-9.13958e-05
-9.0289e-05
-8.88216e-05
-8.70948e-05
-8.52209e-05
-8.33169e-05
-8.14961e-05
-7.98625e-05
-7.85038e-05
-7.74887e-05
-7.68619e-05
-7.66448e-05
-7.68331e-05
-7.74004e-05
-7.82976e-05
-7.94599e-05
-8.08046e-05
-8.22467e-05
-8.36888e-05
-8.50335e-05
-8.61958e-05
-8.7093e-05
-8.76603e-05
-8.78486e-05
-8.76315e-05
-8.70047e-05
-8.59896e-05
-8.46309e-05
-8.29973e-05
-8.11765e-05
-7.92725e-05
-7.73986e-05
-7.56718e-05
-7.42044e-05
-7.30976e-05
-7.24331e-05
-7.22685e-05
-7.26307e-05
-7.35151e-05
-7.4883e-05
-7.66652e-05
-7.87646e-05
-8.10634e-05
-8.33009e-05
-8.53435e-05
-8.7194e-05
-8.87385e-05
-8.98843e-05
-9.05649e-05
-9.07452e-05
-9.04217e-05
-8.9624e-05
-8.84096e-05
-8.68618e-05
-8.50815e-05
-8.3182e-05
-8.12798e-05
-7.94892e-05
-7.79135e-05
-7.66417e-05
-7.57411e-05
-7.52573e-05
-7.52094e-05
-7.5593e-05
-7.63774e-05
-7.75126e-05
-7.89268e-05
-8.05387e-05
-8.22467e-05
-8.39548e-05
-8.55666e-05
-8.69808e-05
-8.8116e-05
-8.89004e-05
-8.9284e-05
-8.92361e-05
-8.87523e-05
-8.78517e-05
-8.65799e-05
-8.50042e-05
-8.32136e-05
-8.13114e-05
-7.94119e-05
-7.76316e-05
-7.60838e-05
-7.48694e-05
-7.40717e-05
-7.37482e-05
-7.39285e-05
-7.46091e-05
-7.57549e-05
-7.72994e-05
-7.91499e-05
-8.11925e-05
-8.31317e-05
-8.48397e-05
-8.63653e-05
-8.76016e-05
-8.84609e-05
-8.8882e-05
-8.88326e-05
-8.83129e-05
-8.73529e-05
-8.60124e-05
-8.43736e-05
-8.25383e-05
-8.06184e-05
-7.87309e-05
-7.69886e-05
-7.54957e-05
-7.43394e-05
-7.35883e-05
-7.32854e-05
-7.34506e-05
-7.40753e-05
-7.51286e-05
-7.65538e-05
-7.8278e-05
-8.02065e-05
-8.22467e-05
-8.42869e-05
-8.62154e-05
-8.79396e-05
-8.93648e-05
-9.04181e-05
-9.10428e-05
-9.1208e-05
-9.09051e-05
-9.0154e-05
-8.89977e-05
-8.75048e-05
-8.57625e-05
-8.3875e-05
-8.19551e-05
-8.01198e-05
-7.8481e-05
-7.71405e-05
-7.61805e-05
-7.56608e-05
-7.56114e-05
-7.60325e-05
-7.68918e-05
-7.81281e-05
-7.96538e-05
-8.13617e-05
-8.29253e-05
-8.42247e-05
-8.53561e-05
-8.622e-05
-8.6737e-05
-8.68511e-05
-8.65356e-05
-8.57925e-05
-8.46547e-05
-8.31809e-05
-8.14539e-05
-7.95729e-05
-7.76494e-05
-7.57971e-05
-7.41287e-05
-7.27455e-05
-7.17353e-05
-7.11635e-05
-7.10745e-05
-7.14841e-05
-7.23845e-05
-7.37389e-05
-7.54906e-05
-7.75572e-05
-7.98486e-05
-8.22467e-05
-8.46448e-05
-8.69362e-05
-8.90028e-05
-9.07545e-05
-9.21089e-05
-9.30093e-05
-9.34189e-05
-9.33299e-05
-9.27582e-05
-9.17479e-05
-9.03647e-05
-8.86963e-05
-8.68441e-05
-8.49205e-05
-8.30395e-05
-8.13125e-05
-7.98387e-05
-7.87009e-05
-7.79578e-05
-7.76423e-05
-7.77564e-05
-7.82734e-05
-7.91373e-05
-8.02687e-05
-8.15681e-05
-8.26843e-05
-8.35086e-05
-8.41822e-05
-8.46182e-05
-8.47452e-05
-8.45162e-05
-8.39085e-05
-8.29289e-05
-8.16098e-05
-8.00107e-05
-7.82107e-05
-7.63074e-05
-7.44069e-05
-7.2621e-05
-7.10572e-05
-6.98157e-05
-6.89797e-05
-6.86155e-05
-6.87629e-05
-6.94394e-05
-7.06318e-05
-7.23048e-05
-7.43935e-05
-7.68174e-05
-7.94683e-05
-8.22467e-05
-8.50251e-05
-8.7676e-05
-9.00999e-05
-9.21886e-05
-9.38616e-05
-9.5054e-05
-9.57305e-05
-9.58779e-05
-9.55137e-05
-9.46777e-05
-9.34362e-05
-9.18724e-05
-9.00865e-05
-8.8186e-05
-8.62827e-05
-8.44828e-05
-8.28836e-05
-8.15645e-05
-8.05849e-05
-7.99773e-05
-7.97482e-05
-7.98752e-05
-8.03112e-05
-8.09848e-05
-8.18091e-05
-8.24129e-05
-8.27012e-05
-8.28627e-05
-8.28225e-05
-8.25228e-05
-8.1924e-05
-8.10117e-05
-7.97939e-05
-7.83052e-05
-7.66012e-05
-7.47585e-05
-7.28673e-05
-7.10294e-05
-6.93482e-05
-6.79276e-05
-6.68605e-05
-6.62288e-05
-6.6093e-05
-6.64942e-05
-6.74444e-05
-6.89334e-05
-7.0919e-05
-7.33399e-05
-7.61053e-05
-7.91188e-05
-8.22467e-05
-8.53746e-05
-8.83881e-05
-9.11535e-05
-9.35744e-05
-9.55601e-05
-9.7049e-05
-9.79992e-05
-9.84004e-05
-9.82646e-05
-9.76329e-05
-9.65658e-05
-9.51452e-05
-9.3464e-05
-9.16261e-05
-8.97349e-05
-8.78923e-05
-8.61882e-05
-8.46995e-05
-8.34817e-05
-8.25694e-05
-8.19706e-05
-8.16709e-05
-8.16307e-05
-8.17922e-05
-8.20805e-05
-8.2114e-05
-8.18151e-05
-8.14166e-05
-8.08627e-05
-8.01078e-05
-7.91253e-05
-7.79058e-05
-7.64625e-05
-7.48272e-05
-7.30534e-05
-7.12089e-05
-6.93777e-05
-6.76495e-05
-6.61212e-05
-6.48851e-05
-6.40296e-05
-6.36279e-05
-6.37398e-05
-6.43998e-05
-6.5623e-05
-6.73932e-05
-6.96735e-05
-7.23944e-05
-7.54725e-05
-7.87901e-05
-8.22467e-05
-8.57033e-05
-8.90209e-05
-9.2099e-05
-9.48199e-05
-9.71002e-05
-9.88704e-05
-0.000100094
-0.000100754
-0.000100865
-0.000100464
-9.96083e-05
-9.83722e-05
-9.68439e-05
-9.51158e-05
-9.32845e-05
-9.144e-05
-8.96662e-05
-8.80309e-05
-8.65876e-05
-8.53681e-05
-8.43856e-05
-8.36307e-05
-8.30768e-05
-8.26783e-05
-8.23795e-05
-8.17927e-05
-8.08617e-05
-7.98661e-05
-7.8768e-05
-7.75413e-05
-7.61694e-05
-7.46532e-05
-7.30061e-05
-7.12606e-05
-6.9461e-05
-6.76683e-05
-6.59516e-05
-6.43907e-05
-6.30663e-05
-6.2062e-05
-6.14529e-05
-6.13081e-05
-6.16777e-05
-6.2598e-05
-6.40776e-05
-6.61062e-05
-6.86406e-05
-7.16208e-05
-7.49531e-05
-7.85431e-05
-8.22467e-05
-8.59504e-05
-8.95403e-05
-9.28726e-05
-9.58528e-05
-9.83872e-05
-0.000100416
-0.000101895
-0.000102816
-0.000103185
-0.00010304
-0.000102431
-0.000101427
-0.000100103
-9.85418e-05
-9.68251e-05
-9.50324e-05
-9.32329e-05
-9.14873e-05
-8.98402e-05
-8.8324e-05
-8.69522e-05
-8.57254e-05
-8.46273e-05
-8.36317e-05
-8.27007e-05
-8.14523e-05
-7.98553e-05
-7.8232e-05
-7.65708e-05
-7.48622e-05
-7.3107e-05
-7.13114e-05
-6.94942e-05
-6.7681e-05
-6.59106e-05
-6.42279e-05
-6.26895e-05
-6.13549e-05
-6.02917e-05
-5.95643e-05
-5.9239e-05
-5.93704e-05
-6.00072e-05
-6.11766e-05
-6.28926e-05
-6.51388e-05
-6.78829e-05
-7.10573e-05
-7.45842e-05
-7.83442e-05
-8.22467e-05
-8.61492e-05
-8.99092e-05
-9.34361e-05
-9.66105e-05
-9.93546e-05
-0.000101601
-0.000103317
-0.000104486
-0.000105123
-0.000105254
-0.000104929
-0.000104202
-0.000103138
-0.000101804
-0.000100266
-9.85828e-05
-9.68124e-05
-9.49992e-05
-9.3182e-05
-9.13864e-05
-8.96312e-05
-8.79226e-05
-8.62614e-05
-8.46382e-05
-8.30411e-05
-8.10986e-05
-7.88081e-05
-7.65383e-05
-7.4301e-05
-7.21119e-05
-6.99845e-05
-6.79373e-05
-6.59871e-05
-6.41579e-05
-6.24734e-05
-6.09659e-05
-5.96687e-05
-5.86244e-05
-5.78757e-05
-5.74727e-05
-5.74611e-05
-5.78891e-05
-5.87916e-05
-6.01988e-05
-6.21168e-05
-6.45403e-05
-6.74309e-05
-7.07388e-05
-7.43759e-05
-7.82607e-05
-8.22467e-05
-8.62327e-05
-9.01175e-05
-9.37546e-05
-9.70625e-05
-9.99532e-05
-0.000102377
-0.000104295
-0.000105702
-0.000106604
-0.000107032
-0.000107021
-0.000106618
-0.000105869
-0.000104825
-0.000103528
-0.00010202
-0.000100335
-9.85063e-05
-9.65561e-05
-9.45089e-05
-9.23815e-05
-9.01924e-05
-8.79551e-05
-8.56853e-05
-8.33948e-05
-8.07349e-05
-7.77361e-05
-7.48066e-05
-7.19917e-05
-6.93276e-05
-6.6849e-05
-6.45795e-05
-6.25412e-05
-6.07465e-05
-5.92095e-05
-5.79384e-05
-5.6948e-05
-5.62513e-05
-5.58715e-05
-5.58315e-05
-5.61644e-05
-5.68982e-05
-5.80663e-05
-5.96872e-05
-6.17765e-05
-6.43223e-05
-6.73046e-05
-7.06657e-05
-7.43439e-05
-7.82264e-05
-8.22467e-05
-8.6267e-05
-9.01495e-05
-9.38277e-05
-9.71888e-05
-0.000100171
-0.000102717
-0.000104806
-0.000106427
-0.000107595
-0.000108329
-0.000108662
-0.000108622
-0.000108242
-0.000107545
-0.000106555
-0.000105284
-0.000103747
-0.000101952
-9.99139e-05
-9.76444e-05
-9.51658e-05
-9.25017e-05
-8.96868e-05
-8.67573e-05
-8.37585e-05
-8.0368e-05
-7.66519e-05
-7.30623e-05
-6.96724e-05
-6.65493e-05
-6.37412e-05
-6.1286e-05
-5.92009e-05
-5.74948e-05
-5.61598e-05
-5.5187e-05
-5.45589e-05
-5.4266e-05
-5.42976e-05
-5.46583e-05
-5.53534e-05
-5.64036e-05
-5.78245e-05
-5.96403e-05
-6.18574e-05
-6.44815e-05
-6.74858e-05
-7.08401e-05
-7.44703e-05
-7.83206e-05
-8.22467e-05
-8.61728e-05
-9.00231e-05
-9.36533e-05
-9.70076e-05
-0.000100012
-0.000102636
-0.000104853
-0.000106669
-0.00010809
-0.00010914
-0.000109835
-0.000110196
-0.000110227
-0.000109935
-0.000109306
-0.000108334
-0.000106999
-0.000105293
-0.000103207
-0.000100752
-9.79441e-05
-9.4821e-05
-9.14311e-05
-8.78415e-05
-8.41254e-05
-8.00007e-05
-7.55727e-05
-7.13271e-05
-6.7377e-05
-6.38114e-05
-6.07036e-05
-5.80949e-05
-5.60079e-05
-5.4435e-05
-5.3356e-05
-5.273e-05
-5.25166e-05
-5.2668e-05
-5.31507e-05
-5.39337e-05
-5.50089e-05
-5.63712e-05
-5.8037e-05
-6.0016e-05
-6.23296e-05
-6.49754e-05
-6.7954e-05
-7.12246e-05
-7.4752e-05
-7.84351e-05
-8.22467e-05
-8.60583e-05
-8.97414e-05
-9.32688e-05
-9.65394e-05
-9.9518e-05
-0.000102164
-0.000104477
-0.000106456
-0.000108122
-0.000109485
-0.00011056
-0.000111343
-0.000111825
-0.000111977
-0.000111763
-0.000111137
-0.000110058
-0.000108485
-0.000106399
-0.00010379
-0.000100682
-9.71164e-05
-9.31663e-05
-8.89207e-05
-8.44927e-05
-7.96411e-05
-7.45113e-05
-6.96283e-05
-6.5134e-05
-6.11531e-05
-5.77711e-05
-5.50461e-05
-5.29917e-05
-5.15962e-05
-5.08111e-05
-5.05763e-05
-5.08109e-05
-5.14425e-05
-5.23958e-05
-5.36211e-05
-5.50757e-05
-5.67499e-05
-5.86375e-05
-6.07598e-05
-6.31257e-05
-6.57592e-05
-6.86503e-05
-7.17976e-05
-7.51461e-05
-7.86772e-05
-8.22467e-05
-8.58162e-05
-8.93473e-05
-9.26958e-05
-9.58431e-05
-9.87342e-05
-0.000101368
-0.000103734
-0.000105856
-0.000107744
-0.000109418
-0.000110872
-0.000112098
-0.000113051
-0.000113683
-0.000113917
-0.000113682
-0.000112897
-0.000111502
-0.000109447
-0.000106722
-0.00010334
-9.93594e-05
-9.48651e-05
-8.99821e-05
-8.48523e-05
-7.92911e-05
-7.34869e-05
-6.79871e-05
-6.29785e-05
-5.8606e-05
-5.49835e-05
-5.21689e-05
-5.0183e-05
-4.8992e-05
-4.85355e-05
-4.87141e-05
-4.94247e-05
-5.05486e-05
-5.19889e-05
-5.36535e-05
-5.54897e-05
-5.7456e-05
-5.95535e-05
-6.17838e-05
-6.418e-05
-6.67527e-05
-6.95307e-05
-7.24937e-05
-7.56415e-05
-7.88826e-05
-8.22467e-05
-8.56108e-05
-8.88519e-05
-9.19997e-05
-9.49627e-05
-9.77407e-05
-0.000100313
-0.00010271
-0.00010494
-0.000107037
-0.000109004
-0.00011084
-0.000112504
-0.000113945
-0.000115069
-0.000115779
-0.000115958
-0.000115501
-0.00011431
-0.000112325
-0.00010951
-0.000105887
-0.000101515
-9.65063e-05
-9.10066e-05
-8.52023e-05
-7.89606e-05
-7.25109e-05
-6.64327e-05
-6.09374e-05
-5.62095e-05
-5.23706e-05
-4.94987e-05
-4.76e-05
-4.66398e-05
-4.65225e-05
-4.71328e-05
-4.832e-05
-4.99447e-05
-5.18613e-05
-5.3964e-05
-5.61594e-05
-5.84086e-05
-6.06839e-05
-6.30083e-05
-6.53953e-05
-6.78939e-05
-7.05123e-05
-7.3286e-05
-7.61772e-05
-7.92182e-05
-8.22467e-05
-8.52752e-05
-8.83162e-05
-9.12074e-05
-9.39811e-05
-9.65995e-05
-9.90981e-05
-0.000101485
-0.000103809
-0.000106085
-0.000108334
-0.000110529
-0.000112632
-0.000114549
-0.000116173
-0.000117361
-0.000117971
-0.000117854
-0.000116893
-0.000114995
-0.000112123
-0.000108284
-0.000103556
-9.80607e-05
-9.19825e-05
-8.55328e-05
-7.86495e-05
-7.16051e-05
-6.49842e-05
-5.90473e-05
-5.39915e-05
-4.99716e-05
-4.70578e-05
-4.52691e-05
-4.45412e-05
-4.47732e-05
-4.58035e-05
-4.74661e-05
-4.95689e-05
-5.19529e-05
-5.44629e-05
-5.70055e-05
-5.95024e-05
-6.19448e-05
-6.43266e-05
-6.66998e-05
-6.90866e-05
-7.15525e-05
-7.40928e-05
-7.67517e-05
-7.94308e-05
-8.22467e-05
-8.50626e-05
-8.77417e-05
-9.04006e-05
-9.29409e-05
-9.54068e-05
-9.77936e-05
-0.000100167
-0.000102549
-0.000104991
-0.000107488
-0.00011003
-0.000112541
-0.000114925
-0.000117027
-0.00011869
-0.00011972
-0.000119952
-0.000119224
-0.000117436
-0.000114522
-0.000110502
-0.000105446
-9.95092e-05
-9.28883e-05
-8.58439e-05
-7.83705e-05
-7.07775e-05
-6.36733e-05
-5.73309e-05
-5.19928e-05
-4.78102e-05
-4.48811e-05
-4.31999e-05
-4.27113e-05
-4.32706e-05
-4.47117e-05
-4.68134e-05
-4.9376e-05
-5.21834e-05
-5.50818e-05
-5.79267e-05
-6.06587e-05
-6.32274e-05
-6.56663e-05
-6.79897e-05
-7.02812e-05
-7.25592e-05
-7.49064e-05
-7.72881e-05
-7.98124e-05
-8.22467e-05
-8.4681e-05
-8.72053e-05
-8.9587e-05
-9.19342e-05
-9.42122e-05
-9.65037e-05
-9.88271e-05
-0.000101266
-0.000103835
-0.000106567
-0.000109412
-0.00011231
-0.000115117
-0.00011768
-0.000119782
-0.000121223
-0.000121782
-0.000121293
-0.000119612
-0.000116683
-0.000112501
-0.000107163
-0.00010082
-9.37159e-05
-8.61229e-05
-7.81188e-05
-7.00532e-05
-6.25127e-05
-5.58272e-05
-5.02338e-05
-4.59274e-05
-4.29827e-05
-4.14208e-05
-4.11437e-05
-4.20186e-05
-4.38217e-05
-4.63369e-05
-4.92995e-05
-5.25028e-05
-5.57293e-05
-5.88586e-05
-6.17732e-05
-6.44679e-05
-6.69217e-05
-6.92182e-05
-7.13787e-05
-7.3519e-05
-7.56296e-05
-7.78184e-05
-7.99288e-05
-8.22467e-05
-8.45646e-05
-8.6675e-05
-8.88638e-05
-9.09744e-05
-9.31147e-05
-9.52752e-05
-9.75717e-05
-0.000100026
-0.00010272
-0.000105635
-0.000108764
-0.000111991
-0.000115194
-0.000118156
-0.000120672
-0.000122475
-0.00012335
-0.000123073
-0.000121511
-0.000118566
-0.00011426
-0.000108666
-0.000101981
-9.44402e-05
-8.63746e-05
-7.79136e-05
-6.94314e-05
-6.15386e-05
-5.45478e-05
-4.87586e-05
-4.43353e-05
-4.14018e-05
-3.99309e-05
-3.98604e-05
-4.09927e-05
-4.31311e-05
-4.59833e-05
-4.93127e-05
-5.28317e-05
-5.63626e-05
-5.97043e-05
-6.27995e-05
-6.55624e-05
-6.80583e-05
-7.02816e-05
-7.23721e-05
-7.4327e-05
-7.63067e-05
-7.82301e-05
-8.03682e-05
-8.22467e-05
-8.41252e-05
-8.62633e-05
-8.81867e-05
-9.01664e-05
-9.21213e-05
-9.42119e-05
-9.64351e-05
-9.89311e-05
-0.000101694
-0.000104789
-0.000108131
-0.000111662
-0.000115181
-0.00011851
-0.000121362
-0.000123501
-0.000124633
-0.000124562
-0.000123092
-0.000120158
-0.000115735
-0.000109946
-0.000102955
-9.5062e-05
-8.65798e-05
-7.77362e-05
-6.89471e-05
-6.07466e-05
-5.35396e-05
-4.75689e-05
-4.30828e-05
-4.01341e-05
-3.877e-05
-3.88403e-05
-4.02148e-05
-4.25945e-05
-4.57543e-05
-4.93449e-05
-5.31562e-05
-5.68904e-05
-6.04444e-05
-6.36337e-05
-6.64999e-05
-6.89657e-05
-7.11929e-05
-7.31427e-05
-7.5041e-05
-7.67842e-05
-7.86324e-05
-8.01617e-05
-8.22467e-05
-8.43317e-05
-8.5861e-05
-8.77092e-05
-8.94524e-05
-9.13507e-05
-9.33005e-05
-9.55277e-05
-9.79935e-05
-0.00010086
-0.000104049
-0.000107603
-0.000111337
-0.000115149
-0.000118739
-0.000121899
-0.000124279
-0.000125653
-0.000125723
-0.000124359
-0.000121411
-0.000116925
-0.000110954
-0.000103747
-9.55463e-05
-8.67572e-05
-7.76284e-05
-6.8572e-05
-6.01908e-05
-5.27827e-05
-4.67253e-05
-4.21498e-05
-3.92386e-05
-3.79073e-05
-3.81323e-05
-3.96354e-05
-4.22468e-05
-4.55778e-05
-4.94191e-05
-5.33822e-05
-5.73313e-05
-6.09674e-05
-6.43023e-05
-6.71547e-05
-6.96937e-05
-7.18089e-05
-7.37854e-05
-7.54767e-05
-7.72384e-05
-7.86298e-05
-8.04769e-05
-8.22467e-05
-8.40165e-05
-8.58636e-05
-8.7255e-05
-8.90167e-05
-9.0708e-05
-9.26845e-05
-9.47997e-05
-9.73387e-05
-0.000100191
-0.000103526
-0.000107162
-0.000111111
-0.000115074
-0.000118916
-0.000122247
-0.000124858
-0.000126361
-0.000126586
-0.000125255
-0.000122344
-0.000117768
-0.000111711
-0.000104303
-9.59214e-05
-8.6865e-05
-7.741e-05
-6.8497e-05
-5.96981e-05
-5.24787e-05
-4.6054e-05
-4.17453e-05
-3.85302e-05
-3.7556e-05
-3.75296e-05
-3.94714e-05
-4.18505e-05
-4.56785e-05
-4.92598e-05
-5.37542e-05
-5.73647e-05
-6.1557e-05
-6.44272e-05
-6.78807e-05
-6.97786e-05
-7.26069e-05
-7.36819e-05
-7.63537e-05
-7.66571e-05
-7.8886e-05
-7.22158e-05
-8.22467e-05
-9.22776e-05
-8.56074e-05
-8.78363e-05
-8.81397e-05
-9.08115e-05
-9.18865e-05
-9.47148e-05
-9.66127e-05
-0.000100066
-0.000102936
-0.000107129
-0.000110739
-0.000115234
-0.000118815
-0.000122643
-0.000125022
-0.000126964
-0.000126937
-0.000125963
-0.000122748
-0.000118439
-0.000112015
-0.000104795
-9.59964e-05
-8.70834e-05
-7.69185e-05
-6.88916e-05
-5.91097e-05
-5.28046e-05
-4.53942e-05
-4.20529e-05
-3.78389e-05
-3.79056e-05
-3.68453e-05
-3.99186e-05
-4.11948e-05
-4.62639e-05
-4.86254e-05
-5.45008e-05
-5.67106e-05
-6.24795e-05
-6.36763e-05
-6.90087e-05
-6.88082e-05
-7.40318e-05
-7.22702e-05
-7.83567e-05
-7.41636e-05
-8.15435e-05
-5.34317e-05
-8.22467e-05
-0.000111062
-8.29499e-05
-9.03298e-05
-8.61367e-05
-9.22232e-05
-9.04616e-05
-9.56852e-05
-9.54847e-05
-0.000100817
-0.000102014
-0.000107783
-0.000109993
-0.000115868
-0.000118229
-0.000123299
-0.000124575
-0.000127648
-0.000126588
-0.000126655
-0.000122441
-0.000119099
-0.000111689
-0.000105384
-9.56018e-05
-8.75749e-05
-7.741e-05
-6.8497e-05
-5.96981e-05
-5.24787e-05
-4.6054e-05
-4.17453e-05
-3.85302e-05
-3.7556e-05
-3.75296e-05
-3.94714e-05
-4.18505e-05
-4.56785e-05
-4.92598e-05
-5.37542e-05
-5.73647e-05
-6.1557e-05
-6.44272e-05
-6.78807e-05
-6.97786e-05
-7.26069e-05
-7.36819e-05
-7.63537e-05
-7.66571e-05
-7.8886e-05
-7.22158e-05
-8.22467e-05
-9.22776e-05
-8.56074e-05
-8.78363e-05
-8.81397e-05
-9.08115e-05
-9.18865e-05
-9.47148e-05
-9.66127e-05
-0.000100066
-0.000102936
-0.000107129
-0.000110739
-0.000115234
-0.000118815
-0.000122643
-0.000125022
-0.000126964
-0.000126937
-0.000125963
-0.000122748
-0.000118439
-0.000112015
-0.000104795
-9.59964e-05
-8.70834e-05
-7.76284e-05
-6.8572e-05
-6.01908e-05
-5.27827e-05
-4.67253e-05
-4.21498e-05
-3.92386e-05
-3.79073e-05
-3.81323e-05
-3.96354e-05
-4.22468e-05
-4.55778e-05
-4.94191e-05
-5.33822e-05
-5.73313e-05
-6.09674e-05
-6.43023e-05
-6.71547e-05
-6.96937e-05
-7.18089e-05
-7.37854e-05
-7.54767e-05
-7.72384e-05
-7.86298e-05
-8.04769e-05
-8.22467e-05
-8.40165e-05
-8.58636e-05
-8.7255e-05
-8.90167e-05
-9.0708e-05
-9.26845e-05
-9.47997e-05
-9.73387e-05
-0.000100191
-0.000103526
-0.000107162
-0.000111111
-0.000115074
-0.000118916
-0.000122247
-0.000124858
-0.000126361
-0.000126586
-0.000125255
-0.000122344
-0.000117768
-0.000111711
-0.000104303
-9.59214e-05
-8.6865e-05
-7.77362e-05
-6.89471e-05
-6.07466e-05
-5.35396e-05
-4.75689e-05
-4.30828e-05
-4.01341e-05
-3.877e-05
-3.88403e-05
-4.02148e-05
-4.25945e-05
-4.57543e-05
-4.93449e-05
-5.31562e-05
-5.68904e-05
-6.04444e-05
-6.36337e-05
-6.64999e-05
-6.89657e-05
-7.11929e-05
-7.31427e-05
-7.5041e-05
-7.67842e-05
-7.86324e-05
-8.01617e-05
-8.22467e-05
-8.43317e-05
-8.5861e-05
-8.77092e-05
-8.94524e-05
-9.13507e-05
-9.33005e-05
-9.55277e-05
-9.79935e-05
-0.00010086
-0.000104049
-0.000107603
-0.000111337
-0.000115149
-0.000118739
-0.000121899
-0.000124279
-0.000125653
-0.000125723
-0.000124359
-0.000121411
-0.000116925
-0.000110954
-0.000103747
-9.55463e-05
-8.67572e-05
-7.79136e-05
-6.94314e-05
-6.15386e-05
-5.45478e-05
-4.87586e-05
-4.43353e-05
-4.14018e-05
-3.99309e-05
-3.98604e-05
-4.09927e-05
-4.31311e-05
-4.59833e-05
-4.93127e-05
-5.28317e-05
-5.63626e-05
-5.97043e-05
-6.27995e-05
-6.55624e-05
-6.80583e-05
-7.02816e-05
-7.23721e-05
-7.4327e-05
-7.63067e-05
-7.82301e-05
-8.03682e-05
-8.22467e-05
-8.41252e-05
-8.62633e-05
-8.81867e-05
-9.01664e-05
-9.21213e-05
-9.42119e-05
-9.64351e-05
-9.89311e-05
-0.000101694
-0.000104789
-0.000108131
-0.000111662
-0.000115181
-0.00011851
-0.000121362
-0.000123501
-0.000124633
-0.000124562
-0.000123092
-0.000120158
-0.000115735
-0.000109946
-0.000102955
-9.5062e-05
-8.65798e-05
-7.81188e-05
-7.00532e-05
-6.25127e-05
-5.58272e-05
-5.02338e-05
-4.59274e-05
-4.29827e-05
-4.14208e-05
-4.11437e-05
-4.20186e-05
-4.38217e-05
-4.63369e-05
-4.92995e-05
-5.25028e-05
-5.57293e-05
-5.88586e-05
-6.17732e-05
-6.44679e-05
-6.69217e-05
-6.92182e-05
-7.13787e-05
-7.3519e-05
-7.56296e-05
-7.78184e-05
-7.99288e-05
-8.22467e-05
-8.45646e-05
-8.6675e-05
-8.88638e-05
-9.09744e-05
-9.31147e-05
-9.52752e-05
-9.75717e-05
-0.000100026
-0.00010272
-0.000105635
-0.000108764
-0.000111991
-0.000115194
-0.000118156
-0.000120672
-0.000122475
-0.00012335
-0.000123073
-0.000121511
-0.000118566
-0.00011426
-0.000108666
-0.000101981
-9.44402e-05
-8.63746e-05
-7.83705e-05
-7.07775e-05
-6.36733e-05
-5.73309e-05
-5.19928e-05
-4.78102e-05
-4.48811e-05
-4.31999e-05
-4.27113e-05
-4.32706e-05
-4.47117e-05
-4.68134e-05
-4.9376e-05
-5.21834e-05
-5.50818e-05
-5.79267e-05
-6.06587e-05
-6.32274e-05
-6.56663e-05
-6.79897e-05
-7.02812e-05
-7.25592e-05
-7.49064e-05
-7.72881e-05
-7.98124e-05
-8.22467e-05
-8.4681e-05
-8.72053e-05
-8.9587e-05
-9.19342e-05
-9.42122e-05
-9.65037e-05
-9.88271e-05
-0.000101266
-0.000103835
-0.000106567
-0.000109412
-0.00011231
-0.000115117
-0.00011768
-0.000119782
-0.000121223
-0.000121782
-0.000121293
-0.000119612
-0.000116683
-0.000112501
-0.000107163
-0.00010082
-9.37159e-05
-8.61229e-05
-7.86495e-05
-7.16051e-05
-6.49842e-05
-5.90473e-05
-5.39915e-05
-4.99716e-05
-4.70578e-05
-4.52691e-05
-4.45412e-05
-4.47732e-05
-4.58035e-05
-4.74661e-05
-4.95689e-05
-5.19529e-05
-5.44629e-05
-5.70055e-05
-5.95024e-05
-6.19448e-05
-6.43266e-05
-6.66998e-05
-6.90866e-05
-7.15525e-05
-7.40928e-05
-7.67517e-05
-7.94308e-05
-8.22467e-05
-8.50626e-05
-8.77417e-05
-9.04006e-05
-9.29409e-05
-9.54068e-05
-9.77936e-05
-0.000100167
-0.000102549
-0.000104991
-0.000107488
-0.00011003
-0.000112541
-0.000114925
-0.000117027
-0.00011869
-0.00011972
-0.000119952
-0.000119224
-0.000117436
-0.000114522
-0.000110502
-0.000105446
-9.95092e-05
-9.28883e-05
-8.58439e-05
-7.89606e-05
-7.25109e-05
-6.64327e-05
-6.09374e-05
-5.62095e-05
-5.23706e-05
-4.94987e-05
-4.76e-05
-4.66398e-05
-4.65225e-05
-4.71328e-05
-4.832e-05
-4.99447e-05
-5.18613e-05
-5.3964e-05
-5.61594e-05
-5.84086e-05
-6.06839e-05
-6.30083e-05
-6.53953e-05
-6.78939e-05
-7.05123e-05
-7.3286e-05
-7.61772e-05
-7.92182e-05
-8.22467e-05
-8.52752e-05
-8.83162e-05
-9.12074e-05
-9.39811e-05
-9.65995e-05
-9.90981e-05
-0.000101485
-0.000103809
-0.000106085
-0.000108334
-0.000110529
-0.000112632
-0.000114549
-0.000116173
-0.000117361
-0.000117971
-0.000117854
-0.000116893
-0.000114995
-0.000112123
-0.000108284
-0.000103556
-9.80607e-05
-9.19825e-05
-8.55328e-05
-7.92911e-05
-7.34869e-05
-6.79871e-05
-6.29785e-05
-5.8606e-05
-5.49835e-05
-5.21689e-05
-5.0183e-05
-4.8992e-05
-4.85355e-05
-4.87141e-05
-4.94247e-05
-5.05486e-05
-5.19889e-05
-5.36535e-05
-5.54897e-05
-5.7456e-05
-5.95535e-05
-6.17838e-05
-6.418e-05
-6.67527e-05
-6.95307e-05
-7.24937e-05
-7.56415e-05
-7.88826e-05
-8.22467e-05
-8.56108e-05
-8.88519e-05
-9.19997e-05
-9.49627e-05
-9.77407e-05
-0.000100313
-0.00010271
-0.00010494
-0.000107037
-0.000109004
-0.00011084
-0.000112504
-0.000113945
-0.000115069
-0.000115779
-0.000115958
-0.000115501
-0.00011431
-0.000112325
-0.00010951
-0.000105887
-0.000101515
-9.65063e-05
-9.10066e-05
-8.52023e-05
-7.96411e-05
-7.45113e-05
-6.96283e-05
-6.5134e-05
-6.11531e-05
-5.77711e-05
-5.50461e-05
-5.29917e-05
-5.15962e-05
-5.08111e-05
-5.05763e-05
-5.08109e-05
-5.14425e-05
-5.23958e-05
-5.36211e-05
-5.50757e-05
-5.67499e-05
-5.86375e-05
-6.07598e-05
-6.31257e-05
-6.57592e-05
-6.86503e-05
-7.17976e-05
-7.51461e-05
-7.86772e-05
-8.22467e-05
-8.58162e-05
-8.93473e-05
-9.26958e-05
-9.58431e-05
-9.87342e-05
-0.000101368
-0.000103734
-0.000105856
-0.000107744
-0.000109418
-0.000110872
-0.000112098
-0.000113051
-0.000113683
-0.000113917
-0.000113682
-0.000112897
-0.000111502
-0.000109447
-0.000106722
-0.00010334
-9.93594e-05
-9.48651e-05
-8.99821e-05
-8.48523e-05
-8.00007e-05
-7.55727e-05
-7.13271e-05
-6.7377e-05
-6.38114e-05
-6.07036e-05
-5.80949e-05
-5.60079e-05
-5.4435e-05
-5.3356e-05
-5.273e-05
-5.25166e-05
-5.2668e-05
-5.31507e-05
-5.39337e-05
-5.50089e-05
-5.63712e-05
-5.8037e-05
-6.0016e-05
-6.23296e-05
-6.49754e-05
-6.7954e-05
-7.12246e-05
-7.4752e-05
-7.84351e-05
-8.22467e-05
-8.60583e-05
-8.97414e-05
-9.32688e-05
-9.65394e-05
-9.9518e-05
-0.000102164
-0.000104477
-0.000106456
-0.000108122
-0.000109485
-0.00011056
-0.000111343
-0.000111825
-0.000111977
-0.000111763
-0.000111137
-0.000110058
-0.000108485
-0.000106399
-0.00010379
-0.000100682
-9.71164e-05
-9.31663e-05
-8.89207e-05
-8.44927e-05
-8.0368e-05
-7.66519e-05
-7.30623e-05
-6.96724e-05
-6.65493e-05
-6.37412e-05
-6.1286e-05
-5.92009e-05
-5.74948e-05
-5.61598e-05
-5.5187e-05
-5.45589e-05
-5.4266e-05
-5.42976e-05
-5.46583e-05
-5.53534e-05
-5.64036e-05
-5.78245e-05
-5.96403e-05
-6.18574e-05
-6.44815e-05
-6.74858e-05
-7.08401e-05
-7.44703e-05
-7.83206e-05
-8.22467e-05
-8.61728e-05
-9.00231e-05
-9.36533e-05
-9.70076e-05
-0.000100012
-0.000102636
-0.000104853
-0.000106669
-0.00010809
-0.00010914
-0.000109835
-0.000110196
-0.000110227
-0.000109935
-0.000109306
-0.000108334
-0.000106999
-0.000105293
-0.000103207
-0.000100752
-9.79441e-05
-9.4821e-05
-9.14311e-05
-8.78415e-05
-8.41254e-05
-8.07349e-05
-7.77361e-05
-7.48066e-05
-7.19917e-05
-6.93276e-05
-6.6849e-05
-6.45795e-05
-6.25412e-05
-6.07465e-05
-5.92095e-05
-5.79384e-05
-5.6948e-05
-5.62513e-05
-5.58715e-05
-5.58315e-05
-5.61644e-05
-5.68982e-05
-5.80663e-05
-5.96872e-05
-6.17765e-05
-6.43223e-05
-6.73046e-05
-7.06657e-05
-7.43439e-05
-7.82264e-05
-8.22467e-05
-8.6267e-05
-9.01495e-05
-9.38277e-05
-9.71888e-05
-0.000100171
-0.000102717
-0.000104806
-0.000106427
-0.000107595
-0.000108329
-0.000108662
-0.000108622
-0.000108242
-0.000107545
-0.000106555
-0.000105284
-0.000103747
-0.000101952
-9.99139e-05
-9.76444e-05
-9.51658e-05
-9.25017e-05
-8.96868e-05
-8.67573e-05
-8.37585e-05
-8.10986e-05
-7.88081e-05
-7.65383e-05
-7.4301e-05
-7.21119e-05
-6.99845e-05
-6.79373e-05
-6.59871e-05
-6.41579e-05
-6.24734e-05
-6.09659e-05
-5.96687e-05
-5.86244e-05
-5.78757e-05
-5.74727e-05
-5.74611e-05
-5.78891e-05
-5.87916e-05
-6.01988e-05
-6.21168e-05
-6.45403e-05
-6.74309e-05
-7.07388e-05
-7.43759e-05
-7.82607e-05
-8.22467e-05
-8.62327e-05
-9.01175e-05
-9.37546e-05
-9.70625e-05
-9.99532e-05
-0.000102377
-0.000104295
-0.000105702
-0.000106604
-0.000107032
-0.000107021
-0.000106618
-0.000105869
-0.000104825
-0.000103528
-0.00010202
-0.000100335
-9.85063e-05
-9.65561e-05
-9.45089e-05
-9.23815e-05
-9.01924e-05
-8.79551e-05
-8.56853e-05
-8.33948e-05
-8.14523e-05
-7.98553e-05
-7.8232e-05
-7.65708e-05
-7.48622e-05
-7.3107e-05
-7.13114e-05
-6.94942e-05
-6.7681e-05
-6.59106e-05
-6.42279e-05
-6.26895e-05
-6.13549e-05
-6.02917e-05
-5.95643e-05
-5.9239e-05
-5.93704e-05
-6.00072e-05
-6.11766e-05
-6.28926e-05
-6.51388e-05
-6.78829e-05
-7.10573e-05
-7.45842e-05
-7.83442e-05
-8.22467e-05
-8.61492e-05
-8.99092e-05
-9.34361e-05
-9.66105e-05
-9.93546e-05
-0.000101601
-0.000103317
-0.000104486
-0.000105123
-0.000105254
-0.000104929
-0.000104202
-0.000103138
-0.000101804
-0.000100266
-9.85828e-05
-9.68124e-05
-9.49992e-05
-9.3182e-05
-9.13864e-05
-8.96312e-05
-8.79226e-05
-8.62614e-05
-8.46382e-05
-8.30411e-05
-8.17927e-05
-8.08617e-05
-7.98661e-05
-7.8768e-05
-7.75413e-05
-7.61694e-05
-7.46532e-05
-7.30061e-05
-7.12606e-05
-6.9461e-05
-6.76683e-05
-6.59516e-05
-6.43907e-05
-6.30663e-05
-6.2062e-05
-6.14529e-05
-6.13081e-05
-6.16777e-05
-6.2598e-05
-6.40776e-05
-6.61062e-05
-6.86406e-05
-7.16208e-05
-7.49531e-05
-7.85431e-05
-8.22467e-05
-8.59504e-05
-8.95403e-05
-9.28726e-05
-9.58528e-05
-9.83872e-05
-0.000100416
-0.000101895
-0.000102816
-0.000103185
-0.00010304
-0.000102431
-0.000101427
-0.000100103
-9.85418e-05
-9.68251e-05
-9.50324e-05
-9.32329e-05
-9.14873e-05
-8.98402e-05
-8.8324e-05
-8.69522e-05
-8.57254e-05
-8.46273e-05
-8.36317e-05
-8.27007e-05
-8.2114e-05
-8.18151e-05
-8.14166e-05
-8.08627e-05
-8.01078e-05
-7.91253e-05
-7.79058e-05
-7.64625e-05
-7.48272e-05
-7.30534e-05
-7.12089e-05
-6.93777e-05
-6.76495e-05
-6.61212e-05
-6.48851e-05
-6.40296e-05
-6.36279e-05
-6.37398e-05
-6.43998e-05
-6.5623e-05
-6.73932e-05
-6.96735e-05
-7.23944e-05
-7.54725e-05
-7.87901e-05
-8.22467e-05
-8.57033e-05
-8.90209e-05
-9.2099e-05
-9.48199e-05
-9.71002e-05
-9.88704e-05
-0.000100094
-0.000100754
-0.000100865
-0.000100464
-9.96083e-05
-9.83722e-05
-9.68439e-05
-9.51158e-05
-9.32845e-05
-9.144e-05
-8.96662e-05
-8.80309e-05
-8.65876e-05
-8.53681e-05
-8.43856e-05
-8.36307e-05
-8.30768e-05
-8.26783e-05
-8.23795e-05
-8.24129e-05
-8.27012e-05
-8.28627e-05
-8.28225e-05
-8.25228e-05
-8.1924e-05
-8.10117e-05
-7.97939e-05
-7.83052e-05
-7.66012e-05
-7.47585e-05
-7.28673e-05
-7.10294e-05
-6.93482e-05
-6.79276e-05
-6.68605e-05
-6.62288e-05