# vtk DataFile Version 2.0
Func
ASCII
DATASET RECTILINEAR_GRID
DIMENSIONS 21 21 21
X_COORDINATES 21 double
-0.47619
-0.428571
-0.380952
-0.333333
-0.285714
-0.238095
-0.190476
-0.142857
-0.0952381
-0.047619
0
0.047619
0.0952381
0.142857
0.190476
0.238095
0.285714
0.333333
0.380952
0.428571
0.47619
Y_COORDINATES 21 double
-0.47619
-0.428571
-0.380952
-0.333333
-0.285714
-0.238095
-0.190476
-0.142857
-0.0952381
-0.047619
0
0.047619
0.0952381
0.142857
0.190476
0.238095
0.285714
0.333333
0.380952
0.428571
0.47619
Z_COORDINATES 21 double
-0.47619
-0.428571
-0.380952
-0.333333
-0.285714
-0.238095
-0.190476
-0.142857
-0.0952381
-0.047619
0
0.047619
0.0952381
0.142857
0.190476
0.238095
0.285714
0.333333
0.380952
0.428571
0.47619
POINT_DATA 9261
SCALARS data double 1
LOOKUP_TABLE default
1.14895e-05
3.36074e-05
5.31652e-05
6.85549e-05
7.83521e-05
8.14584e-05
7.72657e-05
6.58278e-05
4.79659e-05
2.52816e-05
-6.06291e-19
-2.52816e-05
-4.79659e-05
-6.58278e-05
-7.72657e-05
-8.14584e-05
-7.83521e-05
-6.85549e-05
-5.31652e-05
-3.36074e-05
-1.14895e-05
1.21402e-05
3.55285e-05
5.62667e-05
7.2664e-05
8.32041e-05
8.66772e-05
8.23848e-05
7.03166e-05
5.13145e-05
2.70625e-05
-6.0596e-19
-2.70625e-05
-5.13145e-05
-7.03166e-05
-8.23848e-05
-8.66772e-05
-8.32041e-05
-7.2664e-05
-5.62667e-05
-3.55285e-05
-1.21402e-05
1.34089e-05
3.92855e-05
6.23346e-05
8.07234e-05
9.27365e-05
9.69619e-05
9.24911e-05
7.92069e-05
5.79495e-05
3.06349e-05
-6.08185e-19
-3.06349e-05
-5.79495e-05
-7.92069e-05
-9.24911e-05
-9.69619e-05
-9.27365e-05
-8.07234e-05
-6.23346e-05
-3.92855e-05
-1.34089e-05
1.52342e-05
4.46827e-05
7.10789e-05
9.23631e-05
0.000106562
0.000111928
0.000107267
9.22386e-05
6.77182e-05
3.58407e-05
-6.087e-19
-3.58407e-05
-6.77182e-05
-9.22386e-05
-0.000107267
-0.000111928
-0.000106562
-9.23631e-05
-7.10789e-05
-4.46827e-05
-1.52342e-05
1.74979e-05
5.14064e-05
8.19878e-05
0.000106953
0.00012396
0.000130872
0.000126051
0.000108904
8.02361e-05
4.26236e-05
-6.05023e-19
-4.26236e-05
-8.02361e-05
-0.000108904
-0.000126051
-0.000130872
-0.00012396
-0.000106953
-8.19878e-05
-5.14064e-05
-1.74979e-05
2.00504e-05
5.89694e-05
9.43176e-05
0.000123497
0.000143813
0.000152597
0.000147748
0.000128229
9.48499e-05
5.04236e-05
-5.96355e-19
-5.04236e-05
-9.48499e-05
-0.000128229
-0.000147748
-0.000152597
-0.000143813
-0.000123497
-9.43176e-05
-5.89694e-05
-2.00504e-05
2.26598e-05
6.67601e-05
0.000107028
0.000140661
0.000164498
0.000175408
0.000170635
0.00014878
0.000110413
5.89693e-05
-5.77678e-19
-5.89693e-05
-0.000110413
-0.00014878
-0.000170635
-0.000175408
-0.000164498
-0.000140661
-0.000107028
-6.67601e-05
-2.26598e-05
2.51046e-05
7.39952e-05
0.000118922
0.000156743
0.000184035
0.00019703
0.000192525
0.000168471
0.00012547
6.69029e-05
-5.48656e-19
-6.69029e-05
-0.00012547
-0.000168471
-0.000192525
-0.00019703
-0.000184035
-0.000156743
-0.000118922
-7.39952e-05
-2.51046e-05
2.70676e-05
7.99389e-05
0.000128631
0.000170005
0.000200137
0.000215034
0.000210744
0.000185058
0.00013798
7.39043e-05
-5.17664e-19
-7.39043e-05
-0.00013798
-0.000185058
-0.000210744
-0.000215034
-0.000200137
-0.000170005
-0.000128631
-7.99389e-05
-2.70676e-05
2.85753e-05
8.36135e-05
0.000135252
0.000178495
0.000211071
0.000226672
0.000223277
0.000195636
0.000146567
7.36293e-05
-4.92759e-19
-7.36293e-05
-0.000146567
-0.000195636
-0.000223277
-0.000226672
-0.000211071
-0.000178495
-0.000135252
-8.36135e-05
-2.85753e-05
2.97062e-05
8.42754e-05
0.000138211
0.000180766
0.000215671
0.000229869
0.000228752
0.00019796
0.000151172
6.4079e-05
-4.82666e-19
-6.4079e-05
-0.000151172
-0.00019796
-0.000228752
-0.000229869
-0.000215671
-0.000180766
-0.000138211
-8.42754e-05
-2.97062e-05
2.85753e-05
8.36135e-05
0.000135252
0.000178495
0.000211071
0.000226672
0.000223277
0.000195636
0.000146567
7.36293e-05
-4.89375e-19
-7.36293e-05
-0.000146567
-0.000195636
-0.000223277
-0.000226672
-0.000211071
-0.000178495
-0.000135252
-8.36135e-05
-2.85753e-05
2.70676e-05
7.99389e-05
0.000128631
0.000170005
0.000200137
0.000215034
0.000210744
0.000185058
0.00013798
7.39043e-05
-5.11331e-19
-7.39043e-05
-0.00013798
-0.000185058
-0.000210744
-0.000215034
-0.000200137
-0.000170005
-0.000128631
-7.99389e-05
-2.70676e-05
2.51046e-05
7.39952e-05
0.000118922
0.000156743
0.000184035
0.00019703
0.000192525
0.000168471
0.00012547
6.69029e-05
-5.43743e-19
-6.69029e-05
-0.00012547
-0.000168471
-0.000192525
-0.00019703
-0.000184035
-0.000156743
-0.000118922
-7.39952e-05
-2.51046e-05
2.26598e-05
6.67601e-05
0.000107028
0.000140661
0.000164498
0.000175408
0.000170635
0.00014878
0.000110413
5.89693e-05
-5.74489e-19
-5.89693e-05
-0.000110413
-0.00014878
-0.000170635
-0.000175408
-0.000164498
-0.000140661
-0.000107028
-6.67601e-05
-2.26598e-05
2.00504e-05
5.89694e-05
9.43176e-05
0.000123497
0.000143813
0.000152597
0.000147748
0.000128229
9.48499e-05
5.04236e-05
-5.92952e-19
-5.04236e-05
-9.48499e-05
-0.000128229
-0.000147748
-0.000152597
-0.000143813
-0.000123497
-9.43176e-05
-5.89694e-05
-2.00504e-05
1.74979e-05
5.14064e-05
8.19878e-05
0.000106953
0.00012396
0.000130872
0.000126051
0.000108904
8.02361e-05
4.26236e-05
-6.01808e-19
-4.26236e-05
-8.02361e-05
-0.000108904
-0.000126051
-0.000130872
-0.00012396
-0.000106953
-8.19878e-05
-5.14064e-05
-1.74979e-05
1.52342e-05
4.46827e-05
7.10789e-05
9.23631e-05
0.000106562
0.000111928
0.000107267
9.22386e-05
6.77182e-05
3.58407e-05
-6.04955e-19
-3.58407e-05
-6.77182e-05
-9.22386e-05
-0.000107267
-0.000111928
-0.000106562
-9.23631e-05
-7.10789e-05
-4.46827e-05
-1.52342e-05
1.34089e-05
3.92855e-05
6.23346e-05
8.07234e-05
9.27365e-05
9.69619e-05
9.24911e-05
7.92069e-05
5.79495e-05
3.06349e-05
-6.02109e-19
-3.06349e-05
-5.79495e-05
-7.92069e-05
-9.24911e-05
-9.69619e-05
-9.27365e-05
-8.07234e-05
-6.23346e-05
-3.92855e-05
-1.34089e-05
1.21402e-05
3.55285e-05
5.62667e-05
7.2664e-05
8.32041e-05
8.66772e-05
8.23848e-05
7.03166e-05
5.13145e-05
2.70625e-05
-6.00685e-19
-2.70625e-05
-5.13145e-05
-7.03166e-05
-8.23848e-05
-8.66772e-05
-8.32041e-05
-7.2664e-05
-5.62667e-05
-3.55285e-05
-1.21402e-05
1.14895e-05
3.36074e-05
5.31652e-05
6.85549e-05
7.83521e-05
8.14584e-05
7.72657e-05
6.58278e-05
4.79659e-05
2.52816e-05
-6.04781e-19
-2.52816e-05
-4.79659e-05
-6.58278e-05
-7.72657e-05
-8.14584e-05
-7.83521e-05
-6.85549e-05
-5.31652e-05
-3.36074e-05
-1.14895e-05
3.36074e-05
9.83109e-05
0.000155554
0.000200635
0.000229386
0.000238567
0.000226374
0.000192927
0.000140619
7.41206e-05
-5.56821e-19
-7.41206e-05
-0.000140619
-0.000192927
-0.000226374
-0.000238567
-0.000229386
-0.000200635
-0.000155554
-9.83109e-05
-3.36074e-05
3.55285e-05
0.000103994
0.000164732
0.000212816
0.000243787
0.00025409
0.000241621
0.000206327
0.000150619
7.94821e-05
-5.62443e-19
-7.94821e-05
-0.000150619
-0.000206327
-0.000241621
-0.00025409
-0.000243787
-0.000212816
-0.000164732
-0.000103994
-3.55285e-05
3.92855e-05
0.000115108
0.000182712
0.000236722
0.000272125
0.000284713
0.000271789
0.000232897
0.000170498
9.01141e-05
-5.60512e-19
-9.01141e-05
-0.000170498
-0.000232897
-0.000271789
-0.000284713
-0.000272125
-0.000236722
-0.000182712
-0.000115108
-3.92855e-05
4.46827e-05
0.000131106
0.000208644
0.00027132
0.00031329
0.000329402
0.000315997
0.000272005
0.000199837
0.000105905
-5.58817e-19
-0.000105905
-0.000199837
-0.000272005
-0.000315997
-0.000329402
-0.00031329
-0.00027132
-0.000208644
-0.000131106
-4.46827e-05
5.14064e-05
0.000151046
0.000241075
0.000314757
0.000365253
0.000386122
0.000372449
0.000322192
0.000237675
0.000126228
-5.52043e-19
-0.000126228
-0.000237675
-0.000322192
-0.000372449
-0.000386122
-0.000365253
-0.000314757
-0.000241075
-0.000151046
-5.14064e-05
5.89694e-05
0.000173546
0.000277773
0.000364169
0.000424699
0.000451467
0.000437906
0.00038078
0.000282039
0.000150282
-5.37781e-19
-0.000150282
-0.000282039
-0.00038078
-0.000437906
-0.000451467
-0.000424699
-0.000364169
-0.000277773
-0.000173546
-5.89694e-05
6.67601e-05
0.000196719
0.000315737
0.000415521
0.000486904
0.000520299
0.000507396
0.000443355
0.000329736
0.000176018
-5.18718e-19
-0.000176018
-0.000329736
-0.000443355
-0.000507396
-0.000520299
-0.000486904
-0.000415521
-0.000315737
-0.000196719
-6.67601e-05
7.39952e-05
0.000218355
0.000351255
0.000463852
0.00054576
0.000585933
0.000574069
0.000503871
0.000376036
0.000201457
-4.94957e-19
-0.000201457
-0.000376036
-0.000503871
-0.000574069
-0.000585933
-0.00054576
-0.000463852
-0.000351255
-0.000218355
-7.39952e-05
7.99389e-05
0.000236026
0.00038044
0.000503652
0.000594574
0.000640603
0.00063006
0.000554869
0.000415472
0.000222787
-4.70067e-19
-0.000222787
-0.000415472
-0.000554869
-0.00063006
-0.000640603
-0.000594574
-0.000503652
-0.00038044
-0.000236026
-7.99389e-05
8.36135e-05
0.000247867
0.000399415
0.000530201
0.000626659
0.00067735
0.00066714
0.000589684
0.00044188
0.000242302
-4.49286e-19
-0.000242302
-0.00044188
-0.000589684
-0.00066714
-0.00067735
-0.000626659
-0.000530201
-0.000399415
-0.000247867
-8.36135e-05
8.42754e-05
0.00025263
0.000405379
0.000540202
0.000637118
0.000691171
0.000679111
0.000603413
0.000449613
0.000258876
-4.34007e-19
-0.000258876
-0.000449613
-0.000603413
-0.000679111
-0.000691171
-0.000637118
-0.000540202
-0.000405379
-0.00025263
-8.42754e-05
8.36135e-05
0.000247867
0.000399415
0.000530201
0.000626659
0.00067735
0.00066714
0.000589684
0.00044188
0.000242302
-4.35678e-19
-0.000242302
-0.00044188
-0.000589684
-0.00066714
-0.00067735
-0.000626659
-0.000530201
-0.000399415
-0.000247867
-8.36135e-05
7.99389e-05
0.000236026
0.00038044
0.000503652
0.000594574
0.000640603
0.00063006
0.000554869
0.000415472
0.000222787
-4.60376e-19
-0.000222787
-0.000415472
-0.000554869
-0.00063006
-0.000640603
-0.000594574
-0.000503652
-0.00038044
-0.000236026
-7.99389e-05
7.39952e-05
0.000218355
0.000351255
0.000463852
0.00054576
0.000585933
0.000574069
0.000503871
0.000376036
0.000201457
-4.93448e-19
-0.000201457
-0.000376036
-0.000503871
-0.000574069
-0.000585933
-0.00054576
-0.000463852
-0.000351255
-0.000218355
-7.39952e-05
6.67601e-05
0.000196719
0.000315737
0.000415521
0.000486904
0.000520299
0.000507396
0.000443355
0.000329736
0.000176018
-5.21827e-19
-0.000176018
-0.000329736
-0.000443355
-0.000507396
-0.000520299
-0.000486904
-0.000415521
-0.000315737
-0.000196719
-6.67601e-05
5.89694e-05
0.000173546
0.000277773
0.000364169
0.000424699
0.000451467
0.000437906
0.00038078
0.000282039
0.000150282
-5.42417e-19
-0.000150282
-0.000282039
-0.00038078
-0.000437906
-0.000451467
-0.000424699
-0.000364169
-0.000277773
-0.000173546
-5.89694e-05
5.14064e-05
0.000151046
0.000241075
0.000314757
0.000365253
0.000386122
0.000372449
0.000322192
0.000237675
0.000126228
-5.56235e-19
-0.000126228
-0.000237675
-0.000322192
-0.000372449
-0.000386122
-0.000365253
-0.000314757
-0.000241075
-0.000151046
-5.14064e-05
4.46827e-05
0.000131106
0.000208644
0.00027132
0.00031329
0.000329402
0.000315997
0.000272005
0.000199837
0.000105905
-5.60055e-19
-0.000105905
-0.000199837
-0.000272005
-0.000315997
-0.000329402
-0.00031329
-0.00027132
-0.000208644
-0.000131106
-4.46827e-05
3.92855e-05
0.000115108
0.000182712
0.000236722
0.000272125
0.000284713
0.000271789
0.000232897
0.000170498
9.01141e-05
-5.55265e-19
-9.01141e-05
-0.000170498
-0.000232897
-0.000271789
-0.000284713
-0.000272125
-0.000236722
-0.000182712
-0.000115108
-3.92855e-05
3.55285e-05
0.000103994
0.000164732
0.000212816
0.000243787
0.00025409
0.000241621
0.000206327
0.000150619
7.94821e-05
-5.4911e-19
-7.94821e-05
-0.000150619
-0.000206327
-0.000241621
-0.00025409
-0.000243787
-0.000212816
-0.000164732
-0.000103994
-3.55285e-05
3.36074e-05
9.83109e-05
0.000155554
0.000200635
0.000229386
0.000238567
0.000226374
0.000192927
0.000140619
7.41206e-05
-5.48052e-19
-7.41206e-05
-0.000140619
-0.000192927
-0.000226374
-0.000238567
-0.000229386
-0.000200635
-0.000155554
-9.83109e-05
-3.36074e-05
5.31652e-05
0.000155554
0.000246218
0.000317743
0.00036351
0.000378332
0.000359257
0.000306384
0.000223433
0.00011782
-4.55984e-19
-0.00011782
-0.000223433
-0.000306384
-0.000359257
-0.000378332
-0.00036351
-0.000317743
-0.000246218
-0.000155554
-5.31652e-05
5.62667e-05
0.000164732
0.000261071
0.000337503
0.000386947
0.000403678
0.000384242
0.000328405
0.000239916
0.000126645
-4.61115e-19
-0.000126645
-0.000239916
-0.000328405
-0.000384242
-0.000403678
-0.000386947
-0.000337503
-0.000261071
-0.000164732
-5.62667e-05
6.23346e-05
0.000182712
0.000290211
0.000376365
0.00043317
0.000453833
0.000433839
0.00037226
0.000272811
0.000144329
-4.57621e-19
-0.000144329
-0.000272811
-0.00037226
-0.000433839
-0.000453833
-0.00043317
-0.000376365
-0.000290211
-0.000182712
-6.23346e-05
7.10789e-05
0.000208644
0.000332358
0.000432777
0.000500588
0.000527359
0.000506947
0.000437209
0.000321741
0.000170634
-4.47784e-19
-0.000170634
-0.000321741
-0.000437209
-0.000506947
-0.000527359
-0.000500588
-0.000432777
-0.000332358
-0.000208644
-7.10789e-05
8.19878e-05
0.000241075
0.000385235
0.000503916
0.000586117
0.000621297
0.000600998
0.000521342
0.000385444
0.000205106
-4.36045e-19
-0.000205106
-0.000385444
-0.000521342
-0.000600998
-0.000621297
-0.000586117
-0.000503916
-0.000385235
-0.000241075
-8.19878e-05
9.43176e-05
0.000277773
0.000445335
0.000585222
0.000684601
0.00073033
0.000711118
0.000620603
0.000461132
0.000246089
-4.20972e-19
-0.000246089
-0.000461132
-0.000620603
-0.000711118
-0.00073033
-0.000684601
-0.000585222
-0.000445335
-0.000277773
-9.43176e-05
0.000107028
0.000315737
0.000507743
0.000670209
0.000788316
0.000846212
0.000829203
0.000728029
0.000543588
0.000291184
-4.04298e-19
-0.000291184
-0.000543588
-0.000728029
-0.000829203
-0.000846212
-0.000788316
-0.000670209
-0.000507743
-0.000315737
-0.000107028
0.000118922
0.000351255
0.000566429
0.00075056
0.000887181
0.000957589
0.000943817
0.000833139
0.000624949
0.000335514
-3.86402e-19
-0.000335514
-0.000624949
-0.000833139
-0.000943817
-0.000957589
-0.000887181
-0.00075056
-0.000566429
-0.000351255
-0.000118922
0.000128631
0.00038044
0.000614733
0.000817138
0.000969559
0.00105122
0.00104085
0.000922965
0.000694707
0.000374125
-3.68764e-19
-0.000374125
-0.000694707
-0.000922965
-0.00104085
-0.00105122
-0.000969559
-0.000817138
-0.000614733
-0.00038044
-0.000128631
0.000135252
0.000399415
0.000646878
0.000860997
0.00102474
0.00111361
0.00110669
0.000983344
0.000742488
0.000395229
-3.51654e-19
-0.000395229
-0.000742488
-0.000983344
-0.00110669
-0.00111361
-0.00102474
-0.000860997
-0.000646878
-0.000399415
-0.000135252
0.000138211
0.000405379
0.000658816
0.000875623
0.00104496
0.00113466
0.00113112
0.00100327
0.000761185
0.000392661
-3.41588e-19
-0.000392661
-0.000761185
-0.00100327
-0.00113112
-0.00113466
-0.00104496
-0.000875623
-0.000658816
-0.000405379
-0.000138211
0.000135252
0.000399415
0.000646878
0.000860997
0.00102474
0.00111361
0.00110669
0.000983344
0.000742488
0.000395229
-3.46676e-19
-0.000395229
-0.000742488
-0.000983344
-0.00110669
-0.00111361
-0.00102474
-0.000860997
-0.000646878
-0.000399415
-0.000135252
0.000128631
0.00038044
0.000614733
0.000817138
0.000969559
0.00105122
0.00104085
0.000922965
0.000694707
0.000374125
-3.71358e-19
-0.000374125
-0.000694707
-0.000922965
-0.00104085
-0.00105122
-0.000969559
-0.000817138
-0.000614733
-0.00038044
-0.000128631
0.000118922
0.000351255
0.000566429
0.00075056
0.000887181
0.000957589
0.000943817
0.000833139
0.000624949
0.000335514
-4.06628e-19
-0.000335514
-0.000624949
-0.000833139
-0.000943817
-0.000957589
-0.000887181
-0.00075056
-0.000566429
-0.000351255
-0.000118922
0.000107028
0.000315737
0.000507743
0.000670209
0.000788316
0.000846212
0.000829203
0.000728029
0.000543588
0.000291184
-4.42061e-19
-0.000291184
-0.000543588
-0.000728029
-0.000829203
-0.000846212
-0.000788316
-0.000670209
-0.000507743
-0.000315737
-0.000107028
9.43176e-05
0.000277773
0.000445335
0.000585222
0.000684601
0.00073033
0.000711118
0.000620603
0.000461132
0.000246089
-4.69626e-19
-0.000246089
-0.000461132
-0.000620603
-0.000711118
-0.00073033
-0.000684601
-0.000585222
-0.000445335
-0.000277773
-9.43176e-05
8.19878e-05
0.000241075
0.000385235
0.000503916
0.000586117
0.000621297
0.000600998
0.000521342
0.000385444
0.000205106
-4.80673e-19
-0.000205106
-0.000385444
-0.000521342
-0.000600998
-0.000621297
-0.000586117
-0.000503916
-0.000385235
-0.000241075
-8.19878e-05
7.10789e-05
0.000208644
0.000332358
0.000432777
0.000500588
0.000527359
0.000506947
0.000437209
0.000321741
0.000170634
-4.77165e-19
-0.000170634
-0.000321741
-0.000437209
-0.000506947
-0.000527359
-0.000500588
-0.000432777
-0.000332358
-0.000208644
-7.10789e-05
6.23346e-05
0.000182712
0.000290211
0.000376365
0.00043317
0.000453833
0.000433839
0.00037226
0.000272811
0.000144329
-4.68518e-19
-0.000144329
-0.000272811
-0.00037226
-0.000433839
-0.000453833
-0.00043317
-0.000376365
-0.000290211
-0.000182712
-6.23346e-05
5.62667e-05
0.000164732
0.000261071
0.000337503
0.000386947
0.000403678
0.000384242
0.000328405
0.000239916
0.000126645
-4.58067e-19
-0.000126645
-0.000239916
-0.000328405
-0.000384242
-0.000403678
-0.000386947
-0.000337503
-0.000261071
-0.000164732
-5.62667e-05
5.31652e-05
0.000155554
0.000246218
0.000317743
0.00036351
0.000378332
0.000359257
0.000306384
0.000223433
0.00011782
-4.52502e-19
-0.00011782
-0.000223433
-0.000306384
-0.000359257
-0.000378332
-0.00036351
-0.000317743
-0.000246218
-0.000155554
-5.31652e-05
6.85549e-05
0.000200635
0.000317743
0.000410355
0.000469896
0.000489559
0.000465363
0.000397255
0.00028993
0.000152957
-3.08578e-19
-0.000152957
-0.00028993
-0.000397255
-0.000465363
-0.000489559
-0.000469896
-0.000410355
-0.000317743
-0.000200635
-6.85549e-05
7.2664e-05
0.000212816
0.000337503
0.00043674
0.000501326
0.000523719
0.000499199
0.000427217
0.000312431
0.000165058
-3.06565e-19
-0.000165058
-0.000312431
-0.000427217
-0.000499199
-0.000523719
-0.000501326
-0.00043674
-0.000337503
-0.000212816
-7.2664e-05
8.07234e-05
0.000236722
0.000376365
0.000488773
0.000563536
0.000591594
0.000566714
0.000487222
0.000357646
0.00018938
-2.99444e-19
-0.00018938
-0.000357646
-0.000487222
-0.000566714
-0.000591594
-0.000563536
-0.000488773
-0.000376365
-0.000236722
-8.07234e-05
9.23631e-05
0.00027132
0.000432777
0.000564662
0.000654777
0.000691803
0.000667052
0.00057698
0.000425619
0.000226144
-2.8149e-19
-0.000226144
-0.000425619
-0.00057698
-0.000667052
-0.000691803
-0.000654777
-0.000564662
-0.000432777
-0.00027132
-9.23631e-05
0.000106953
0.000314757
0.000503916
0.000660933
0.000771429
0.000821031
0.000797654
0.000694803
0.000515515
0.000274888
-2.66744e-19
-0.000274888
-0.000515515
-0.000694803
-0.000797654
-0.000821031
-0.000771429
-0.000660933
-0.000503916
-0.000314757
-0.000106953
0.000123497
0.000364169
0.000585222
0.000771785
0.000906963
0.000972795
0.000952724
0.00083624
0.000624361
0.000334427
-2.55641e-19
-0.000334427
-0.000624361
-0.00083624
-0.000952724
-0.000972795
-0.000906963
-0.000771785
-0.000585222
-0.000364169
-0.000123497
0.000140661
0.000415521
0.000670209
0.000888534
0.00105118
0.00113614
0.00112178
0.000992258
0.00074573
0.000401029
-2.43302e-19
-0.000401029
-0.00074573
-0.000992258
-0.00112178
-0.00113614
-0.00105118
-0.000888534
-0.000670209
-0.000415521
-0.000140661
0.000156743
0.000463852
0.00075056
0.000999834
0.00119
0.00129531
0.00128854
0.00114821
0.00086828
0.000469199
-2.38093e-19
-0.000469199
-0.00086828
-0.00114821
-0.00128854
-0.00129531
-0.00119
-0.000999834
-0.00075056
-0.000463852
-0.000156743
0.000170005
0.000503652
0.000817138
0.0010926
0.00130683
0.0014306
0.0014321
0.0012839
0.000976261
0.000529214
-2.32649e-19
-0.000529214
-0.000976261
-0.0012839
-0.0014321
-0.0014306
-0.00130683
-0.0010926
-0.000817138
-0.000503652
-0.000170005
0.000178495
0.000530201
0.000860997
0.00115469
0.00138489
0.00152247
0.00152964
0.00137796
0.001051
0.000576814
-2.25089e-19
-0.000576814
-0.001051
-0.00137796
-0.00152964
-0.00152247
-0.00138489
-0.00115469
-0.000860997
-0.000530201
-0.000178495
0.000180766
0.000540202
0.000875623
0.00117732
0.00141153
0.00155604
0.00156314
0.00141324
0.00107605
0.00060479
-2.25091e-19
-0.00060479
-0.00107605
-0.00141324
-0.00156314
-0.00155604
-0.00141153
-0.00117732
-0.000875623
-0.000540202
-0.000180766
0.000178495
0.000530201
0.000860997
0.00115469
0.00138489
0.00152247
0.00152964
0.00137796
0.001051
0.000576814
-2.37366e-19
-0.000576814
-0.001051
-0.00137796
-0.00152964
-0.00152247
-0.00138489
-0.00115469
-0.000860997
-0.000530201
-0.000178495
0.000170005
0.000503652
0.000817138
0.0010926
0.00130683
0.0014306
0.0014321
0.0012839
0.000976261
0.000529214
-2.6361e-19
-0.000529214
-0.000976261
-0.0012839
-0.0014321
-0.0014306
-0.00130683
-0.0010926
-0.000817138
-0.000503652
-0.000170005
0.000156743
0.000463852
0.00075056
0.000999834
0.00119
0.00129531
0.00128854
0.00114821
0.00086828
0.000469199
-3.01427e-19
-0.000469199
-0.00086828
-0.00114821
-0.00128854
-0.00129531
-0.00119
-0.000999834
-0.00075056
-0.000463852
-0.000156743
0.000140661
0.000415521
0.000670209
0.000888534
0.00105118
0.00113614
0.00112178
0.000992258
0.00074573
0.000401029
-3.36795e-19
-0.000401029
-0.00074573
-0.000992258
-0.00112178
-0.00113614
-0.00105118
-0.000888534
-0.000670209
-0.000415521
-0.000140661
0.000123497
0.000364169
0.000585222
0.000771785
0.000906963
0.000972795
0.000952724
0.00083624
0.000624361
0.000334427
-3.6129e-19
-0.000334427
-0.000624361
-0.00083624
-0.000952724
-0.000972795
-0.000906963
-0.000771785
-0.000585222
-0.000364169
-0.000123497
0.000106953
0.000314757
0.000503916
0.000660933
0.000771429
0.000821031
0.000797654
0.000694803
0.000515515
0.000274888
-3.68602e-19
-0.000274888
-0.000515515
-0.000694803
-0.000797654
-0.000821031
-0.000771429
-0.000660933
-0.000503916
-0.000314757
-0.000106953
9.23631e-05
0.00027132
0.000432777
0.000564662
0.000654777
0.000691803
0.000667052
0.00057698
0.000425619
0.000226144
-3.61694e-19
-0.000226144
-0.000425619
-0.00057698
-0.000667052
-0.000691803
-0.000654777
-0.000564662
-0.000432777
-0.00027132
-9.23631e-05
8.07234e-05
0.000236722
0.000376365
0.000488773
0.000563536
0.000591594
0.000566714
0.000487222
0.000357646
0.00018938
-3.45325e-19
-0.00018938
-0.000357646
-0.000487222
-0.000566714
-0.000591594
-0.000563536
-0.000488773
-0.000376365
-0.000236722
-8.07234e-05
7.2664e-05
0.000212816
0.000337503
0.00043674
0.000501326
0.000523719
0.000499199
0.000427217
0.000312431
0.000165058
-3.26572e-19
-0.000165058
-0.000312431
-0.000427217
-0.000499199
-0.000523719
-0.000501326
-0.00043674
-0.000337503
-0.000212816
-7.2664e-05
6.85549e-05
0.000200635
0.000317743
0.000410355
0.000469896
0.000489559
0.000465363
0.000397255
0.00028993
0.000152957
-3.14589e-19
-0.000152957
-0.00028993
-0.000397255
-0.000465363
-0.000489559
-0.000469896
-0.000410355
-0.000317743
-0.000200635
-6.85549e-05
7.83521e-05
0.000229386
0.00036351
0.000469896
0.000538691
0.000561949
0.000534869
0.000457138
0.000333958
0.000176303
-1.32589e-19
-0.000176303
-0.000333958
-0.000457138
-0.000534869
-0.000561949
-0.000538691
-0.000469896
-0.00036351
-0.000229386
-7.83521e-05
8.32041e-05
0.000243787
0.000386947
0.000501326
0.000576338
0.000603107
0.000575888
0.000493658
0.000361514
0.00019114
-1.18364e-19
-0.00019114
-0.000361514
-0.000493658
-0.000575888
-0.000603107
-0.000576338
-0.000501326
-0.000386947
-0.000243787
-8.32041e-05
9.27365e-05
0.000272125
0.00043317
0.000563536
0.000651172
0.000685337
0.000658259
0.000567366
0.000417345
0.000221335
-9.71557e-20
-0.000221335
-0.000417345
-0.000567366
-0.000658259
-0.000685337
-0.000651172
-0.000563536
-0.00043317
-0.000272125
-9.27365e-05
0.000106562
0.00031329
0.000500588
0.000654777
0.000761728
0.00080781
0.000782026
0.000679017
0.000502521
0.00026753
-7.98725e-20
-0.00026753
-0.000502521
-0.000679017
-0.000782026
-0.00080781
-0.000761728
-0.000654777
-0.000500588
-0.00031329
-0.000106562
0.00012396
0.000365253
0.000586117
0.000771429
0.000904437
0.000967715
0.000945549
0.000828277
0.000617477
0.000330411
-6.63307e-20
-0.000330411
-0.000617477
-0.000828277
-0.000945549
-0.000967715
-0.000904437
-0.000771429
-0.000586117
-0.000365253
-0.00012396
0.000143813
0.000424699
0.000684601
0.000906963
0.00107224
0.00115835
0.00114348
0.00101159
0.000760491
0.000409129
-5.70281e-20
-0.000409129
-0.000760491
-0.00101159
-0.00114348
-0.00115835
-0.00107224
-0.000906963
-0.000684601
-0.000424699
-0.000143813
0.000164498
0.000486904
0.000788316
0.00105118
0.00125314
0.00136715
0.00136402
0.00121946
0.000925074
0.00050095
-5.71926e-20
-0.00050095
-0.000925074
-0.00121946
-0.00136402
-0.00136715
-0.00125314
-0.00105118
-0.000788316
-0.000486904
-0.000164498
0.000184035
0.00054576
0.000887181
0.00119
0.00142967
0.00157421
0.00158684
0.00143336
0.00109738
0.000597737
-6.17315e-20
-0.000597737
-0.00109738
-0.00143336
-0.00158684
-0.00157421
-0.00142967
-0.00119
-0.000887181
-0.00054576
-0.000184035
0.000200137
0.000594574
0.000969559
0.00130683
0.00157997
0.0017533
0.0017828
0.00162507
0.00125407
0.000687337
-7.46177e-20
-0.000687337
-0.00125407
-0.00162507
-0.0017828
-0.0017533
-0.00157997
-0.00130683
-0.000969559
-0.000594574
-0.000200137
0.000211071
0.000626659
0.00102474
0.00138489
0.0016821
0.00187561
0.00191943
0.00175954
0.00136631
0.000745736
-8.79379e-20
-0.000745736
-0.00136631
-0.00175954
-0.00191943
-0.00187561
-0.0016821
-0.00138489
-0.00102474
-0.000626659
-0.000211071
0.000215671
0.000637118
0.00104496
0.00141153
0.0017193
0.00191813
0.00196992
0.00180652
0.00140936
0.000755306
-9.8994e-20
-0.000755306
-0.00140936
-0.00180652
-0.00196992
-0.00191813
-0.0017193
-0.00141153
-0.00104496
-0.000637118
-0.000215671
0.000211071
0.000626659
0.00102474
0.00138489
0.0016821
0.00187561
0.00191943
0.00175954
0.00136631
0.000745736
-1.17651e-19
-0.000745736
-0.00136631
-0.00175954
-0.00191943
-0.00187561
-0.0016821
-0.00138489
-0.00102474
-0.000626659
-0.000211071
0.000200137
0.000594574
0.000969559
0.00130683
0.00157997
0.0017533
0.0017828
0.00162507
0.00125407
0.000687337
-1.47404e-19
-0.000687337
-0.00125407
-0.00162507
-0.0017828
-0.0017533
-0.00157997
-0.00130683
-0.000969559
-0.000594574
-0.000200137
0.000184035
0.00054576
0.000887181
0.00119
0.00142967
0.00157421
0.00158684
0.00143336
0.00109738
0.000597737
-1.79527e-19
-0.000597737
-0.00109738
-0.00143336
-0.00158684
-0.00157421
-0.00142967
-0.00119
-0.000887181
-0.00054576
-0.000184035
0.000164498
0.000486904
0.000788316
0.00105118
0.00125314
0.00136715
0.00136402
0.00121946
0.000925074
0.00050095
-2.04934e-19
-0.00050095
-0.000925074
-0.00121946
-0.00136402
-0.00136715
-0.00125314
-0.00105118
-0.000788316
-0.000486904
-0.000164498
0.000143813
0.000424699
0.000684601
0.000906963
0.00107224
0.00115835
0.00114348
0.00101159
0.000760491
0.000409129
-2.19276e-19
-0.000409129
-0.000760491
-0.00101159
-0.00114348
-0.00115835
-0.00107224
-0.000906963
-0.000684601
-0.000424699
-0.000143813
0.00012396
0.000365253
0.000586117
0.000771429
0.000904437
0.000967715
0.000945549
0.000828277
0.000617477
0.000330411
-2.23415e-19
-0.000330411
-0.000617477
-0.000828277
-0.000945549
-0.000967715
-0.000904437
-0.000771429
-0.000586117
-0.000365253
-0.00012396
0.000106562
0.00031329
0.000500588
0.000654777
0.000761728
0.00080781
0.000782026
0.000679017
0.000502521
0.00026753
-2.14667e-19
-0.00026753
-0.000502521
-0.000679017
-0.000782026
-0.00080781
-0.000761728
-0.000654777
-0.000500588
-0.00031329
-0.000106562
9.27365e-05
0.000272125
0.00043317
0.000563536
0.000651172
0.000685337
0.000658259
0.000567366
0.000417345
0.000221335
-1.93725e-19
-0.000221335
-0.000417345
-0.000567366
-0.000658259
-0.000685337
-0.000651172
-0.000563536
-0.00043317
-0.000272125
-9.27365e-05
8.32041e-05
0.000243787
0.000386947
0.000501326
0.000576338
0.000603107
0.000575888
0.000493658
0.000361514
0.00019114
-1.67979e-19
-0.00019114
-0.000361514
-0.000493658
-0.000575888
-0.000603107
-0.000576338
-0.000501326
-0.000386947
-0.000243787
-8.32041e-05
7.83521e-05
0.000229386
0.00036351
0.000469896
0.000538691
0.000561949
0.000534869
0.000457138
0.000333958
0.000176303
-1.4624e-19
-0.000176303
-0.000333958
-0.000457138
-0.000534869
-0.000561949
-0.000538691
-0.000469896
-0.00036351
-0.000229386
-7.83521e-05
8.14584e-05
0.000238567
0.000378332
0.000489559
0.000561949
0.000587047
0.000559575
0.0004789
0.000350244
0.000185028
6.18491e-20
-0.000185028
-0.000350244
-0.0004789
-0.000559575
-0.000587047
-0.000561949
-0.000489559
-0.000378332
-0.000238567
-8.14584e-05
8.66772e-05
0.00025409
0.000403678
0.000523719
0.000603107
0.000632348
0.000605024
0.000519622
0.000381119
0.000201735
9.43639e-20
-0.000201735
-0.000381119
-0.000519622
-0.000605024
-0.000632348
-0.000603107
-0.000523719
-0.000403678
-0.00025409
-8.66772e-05
9.69619e-05
0.000284713
0.000453833
0.000591594
0.000685337
0.000723408
0.000696994
0.000602534
0.000444328
0.000236001
1.2276e-19
-0.000236001
-0.000444328
-0.000602534
-0.000696994
-0.000723408
-0.000685337
-0.000591594
-0.000453833
-0.000284713
-9.69619e-05
0.000111928
0.000329402
0.000527359
0.000691803
0.00080781
0.000860464
0.000836945
0.000730081
0.000542428
0.000289604
1.44965e-19
-0.000289604
-0.000542428
-0.000730081
-0.000836945
-0.000860464
-0.00080781
-0.000691803
-0.000527359
-0.000329402
-0.000111928
0.000130872
0.000386122
0.000621297
0.000821031
0.000967715
0.00104199
0.00102527
0.000904351
0.000678286
0.000364365
1.57882e-19
-0.000364365
-0.000678286
-0.000904351
-0.00102527
-0.00104199
-0.000967715
-0.000821031
-0.000621297
-0.000386122
-0.000130872
0.000152597
0.000451467
0.00073033
0.000972795
0.00115835
0.00126242
0.00125858
0.00112473
0.00085312
0.000461984
1.58135e-19
-0.000461984
-0.00085312
-0.00112473
-0.00125858
-0.00126242
-0.00115835
-0.000972795
-0.00073033
-0.000451467
-0.000152597
0.000175408
0.000520299
0.000846212
0.00113614
0.00136715
0.00150899
0.00152597
0.0013836
0.00106322
0.00058084
1.47403e-19
-0.00058084
-0.00106322
-0.0013836
-0.00152597
-0.00150899
-0.00136715
-0.00113614
-0.000846212
-0.000520299
-0.000175408
0.00019703
0.000585933
0.000957589
0.00129531
0.00157421
0.00175916
0.00180445
0.00166102
0.00129422
0.000714568
1.25724e-19
-0.000714568
-0.00129422
-0.00166102
-0.00180445
-0.00175916
-0.00157421
-0.00129531
-0.000957589
-0.000585933
-0.00019703
0.000215034
0.000640603
0.00105122