# vtk DataFile Version 2.0
Func
ASCII
DATASET RECTILINEAR_GRID
DIMENSIONS 21 21 21
X_COORDINATES 21 double
-4.7619
-4.28571
-3.80952
-3.33333
-2.85714
-2.38095
-1.90476
-1.42857
-0.952381
-0.47619
0
0.47619
0.952381
1.42857
1.90476
2.38095
2.85714
3.33333
3.80952
4.28571
4.7619
Y_COORDINATES 21 double
-4.7619
-4.28571
-3.80952
-3.33333
-2.85714
-2.38095
-1.90476
-1.42857
-0.952381
-0.47619
0
0.47619
0.952381
1.42857
1.90476
2.38095
2.85714
3.33333
3.80952
4.28571
4.7619
Z_COORDINATES 21 double
-4.7619
-4.28571
-3.80952
-3.33333
-2.85714
-2.38095
-1.90476
-1.42857
-0.952381
-0.47619
0
0.47619
0.952381
1.42857
1.90476
2.38095
2.85714
3.33333
3.80952
4.28571
4.7619
POINT_DATA 9261
SCALARS data double 3
LOOKUP_TABLE default
0.00544452 -0.0610946 -0.224455
0.0370893 -0.0843713 -0.278083
0.0780922 -0.105266 -0.30023
0.123604 -0.121376 -0.287611
0.16809 -0.129961 -0.245756
0.207093 -0.131768 -0.187626
0.237965 -0.127628 -0.136812
0.257761 -0.118838 -0.103636
0.266406 -0.105488 -0.0900129
0.266222 -0.0869239 -0.0951838
0.257522 -0.0647653 -0.109691
0.240991 -0.0423481 -0.123758
0.217567 -0.0253401 -0.130107
0.188926 -0.021048 -0.125543
0.15858 -0.0329897 -0.1112
0.131073 -0.0622 -0.0907405
0.107611 -0.104519 -0.0690321
0.0885404 -0.143459 -0.0501213
0.0738172 -0.166781 -0.0328234
0.0628791 -0.165524 -0.0200779
0.0538614 -0.139693 -0.0103744
-0.0136205 -0.0749838 -0.264679
0.021345 -0.105561 -0.32668
0.069535 -0.136185 -0.352509
0.124264 -0.16238 -0.34033
0.179005 -0.180207 -0.296989
0.229513 -0.187434 -0.235073
0.272422 -0.183568 -0.182199
0.30416 -0.169761 -0.149377
0.323075 -0.146626 -0.137029
0.331339 -0.114288 -0.142577
0.328044 -0.0759526 -0.155062
0.312926 -0.0370971 -0.163561
0.286394 -0.00609373 -0.160768
0.250411 0.0064562 -0.144557
0.209351 -0.00455275 -0.117876
0.169399 -0.0410853 -0.0861237
0.133213 -0.0978496 -0.0558524
0.102528 -0.152878 -0.0323052
0.0783526 -0.189294 -0.0133909
0.0608593 -0.194335 -0.00185432
0.0480634 -0.166946 0.00444899
-0.0436644 -0.087562 -0.26708
-0.0128312 -0.12656 -0.328823
0.0347073 -0.168397 -0.355892
0.0918182 -0.20702 -0.347427
0.152572 -0.236344 -0.310423
0.212408 -0.250516 -0.256066
0.267412 -0.247592 -0.211193
0.313015 -0.228236 -0.18548
0.34634 -0.193642 -0.177613
0.367708 -0.14514 -0.183047
0.374376 -0.0874783 -0.190437
0.364462 -0.0284178 -0.189295
0.33768 0.0205779 -0.173699
0.296037 0.0450369 -0.143504
0.244999 0.0372403 -0.103776
0.19228 -0.00631672 -0.0615701
0.142501 -0.0792598 -0.0246801
0.0994088 -0.153548 0.000844915
0.0656309 -0.206841 0.0183158
0.042311 -0.221729 0.0255464
0.0274624 -0.195547 0.0258919
-0.0800931 -0.0998872 -0.230882
-0.0587716 -0.149096 -0.285726
-0.0188756 -0.203507 -0.312382
0.0345878 -0.254551 -0.310612
0.0964547 -0.294803 -0.284833
0.162086 -0.315213 -0.246749
0.227214 -0.312607 -0.217163
0.286021 -0.287468 -0.202952
0.334722 -0.241551 -0.200902
0.371031 -0.177221 -0.205687
0.389972 -0.100207 -0.206416
0.387743 -0.0200629 -0.194342
0.363268 0.0488374 -0.165822
0.318576 0.0878396 -0.122871
0.259746 0.0859852 -0.0724424
0.196074 0.0372123 -0.0226155
0.134391 -0.0515254 0.0180766
0.0804369 -0.146168 0.0430893
0.0387048 -0.218707 0.0567159
0.0112539 -0.246487 0.0578583
-0.00366454 -0.224353 0.0507088
-0.1134 -0.111802 -0.167621
-0.10492 -0.172468 -0.211871
-0.0777597 -0.239206 -0.237281
-0.0339892 -0.301427 -0.242187
0.0237309 -0.349701 -0.231384
0.0897826 -0.374507 -0.213463
0.160025 -0.37167 -0.201146
0.228333 -0.341924 -0.197703
0.28965 -0.28739 -0.199708
0.338934 -0.210748 -0.202167
0.369229 -0.117554 -0.195865
0.375031 -0.018123 -0.174634
0.354611 0.0708296 -0.137096
0.310017 0.126409 -0.0867087
0.247529 0.133739 -0.0312627
0.177604 0.0829422 0.0211913
0.108726 -0.0192096 0.0621613
0.0482942 -0.13333 0.084581
0.00230422 -0.226063 0.0936695
-0.0263872 -0.268965 0.0886197
-0.0391129 -0.253387 0.074223
-0.136996 -0.12227 -0.0938921
-0.140129 -0.192866 -0.125499
-0.126182 -0.269723 -0.149387
-0.0946515 -0.340307 -0.162768
-0.0465602 -0.394249 -0.167739
0.0128589 -0.421959 -0.168934
0.0797579 -0.419714 -0.170249
0.148215 -0.388643 -0.172749
0.212808 -0.330706 -0.17462
0.267102 -0.247867 -0.172196
0.303435 -0.144125 -0.159445
0.315592 -0.0292437 -0.132992
0.301503 0.0785659 -0.0929629
0.262845 0.152269 -0.042781
0.205097 0.172338 0.0104936
0.138234 0.123992 0.0600893
0.0712953 0.0126852 0.0982225
0.0120455 -0.118132 0.117295
-0.0325637 -0.230299 0.122346
-0.0591311 -0.28925 0.112397
-0.0682909 -0.281924 0.0923651
-0.142588 -0.12889 -0.0362868
-0.152365 -0.206104 -0.0599878
-0.148189 -0.2891 -0.084176
-0.127945 -0.363965 -0.104282
-0.0919774 -0.420548 -0.118891
-0.0450628 -0.450132 -0.128578
0.00937142 -0.450754 -0.132325
0.0665486 -0.423836 -0.131297
0.122032 -0.370267 -0.126625
0.170226 -0.28997 -0.117668
0.204714 -0.183781 -0.10185
0.220008 -0.0593942 -0.0774682
0.214159 0.0645207 -0.0441824
0.187965 0.157097 -0.00313296
0.144862 0.193503 0.0411224
0.0919832 0.15316 0.0841741
0.0372167 0.0389216 0.119121
-0.0126694 -0.103635 0.13704
-0.0507252 -0.232194 0.140946
-0.0730496 -0.306435 0.129088
-0.0792912 -0.307946 0.105586
-0.130874 -0.130553 -0.00262866
-0.141781 -0.209466 -0.0237868
-0.14283 -0.29331 -0.0495938
-0.131735 -0.367878 -0.0732388
-0.109341 -0.423624 -0.0892685
-0.0797979 -0.454493 -0.0958308
-0.0458435 -0.461059 -0.091033
-0.0103236 -0.444734 -0.0781351
0.0246058 -0.404548 -0.0621481
0.0564775 -0.336893 -0.0466398
0.0819592 -0.237827 -0.032174
0.0977149 -0.111432 -0.0172018
0.102347 0.0243228 0.00116088
0.0952686 0.135364 0.0260359
0.0765091 0.191316 0.0566964
0.0486394 0.16494 0.0916325
0.0161499 0.0553868 0.124717
-0.0167425 -0.091922 0.144682
-0.0437301 -0.231664 0.150912
-0.0607076 -0.318316 0.139939
-0.0658416 -0.328092 0.114771
-0.107522 -0.126045 0.00970207
-0.115242 -0.201669 -0.0122099
-0.117478 -0.280376 -0.0397411
-0.112912 -0.349164 -0.0635898
-0.103764 -0.400773 -0.0753491
-0.093489 -0.432586 -0.0718533
-0.0840252 -0.447983 -0.05257
-0.0758799 -0.448274 -0.0240116
-0.0680404 -0.429802 0.0044335
-0.058333 -0.384191 0.0248796
-0.0457691 -0.301505 0.0342954
-0.0305529 -0.180972 0.0353925
-0.0132649 -0.0387556 0.0349979
0.00374347 0.088805 0.0415104
0.0161446 0.166058 0.0583918
0.0206067 0.158997 0.0868067
0.0170981 0.0618735 0.12093
0.00599122 -0.082115 0.146267
-0.00799492 -0.226293 0.157393
-0.0205687 -0.320898 0.148935
-0.0276638 -0.337647 0.12281
-0.0787275 -0.115674 0.00731624
-0.0802425 -0.182829 -0.0165111
-0.0801858 -0.251232 -0.0453436
-0.0786655 -0.310096 -0.0683895
-0.0796563 -0.35557 -0.0748952
-0.0860968 -0.388492 -0.0605144
-0.0992628 -0.414826 -0.0273288
-0.117442 -0.435615 0.0148888
-0.136365 -0.444083 0.0530307
-0.148863 -0.426565 0.075752
-0.149288 -0.366754 0.078515
-0.134324 -0.258474 0.0659225
-0.103626 -0.115256 0.0489911
-0.0613906 0.0254886 0.0411194
-0.0165077 0.123717 0.0491943
0.0214838 0.139354 0.0760454
0.047595 0.061133 0.115422
0.0579479 -0.0717749 0.148994
0.055312 -0.212914 0.1662
0.0442493 -0.310371 0.160218
0.0312139 -0.332163 0.132281
-0.0516218 -0.103214 0.00542244
-0.0460325 -0.158732 -0.0187625
-0.0412314 -0.213639 -0.0481649
-0.0386798 -0.259931 -0.0715098
-0.0439009 -0.29764 -0.0767542
-0.0597541 -0.330761 -0.0583222
-0.0873317 -0.367462 -0.0196096
-0.123447 -0.40869 0.0277159
-0.161466 -0.444723 0.0684851
-0.190271 -0.456956 0.0896892
-0.200264 -0.423196 0.0861863
-0.184892 -0.33193 0.0643001
-0.14282 -0.193433 0.0382246
-0.0796222 -0.0447086 0.0247786
-0.00797767 0.0713733 0.0325343
0.0573041 0.110231 0.0644367
0.106913 0.0550748 0.113088
0.13322 -0.0602437 0.156359
0.137104 -0.190937 0.179204
0.123481 -0.285379 0.174311
0.100909 -0.309889 0.142976
-0.0312342 -0.0942138 0.0155883
-0.0190188 -0.138019 -0.00552009
-0.00767008 -0.17909 -0.0349101
0.000501368 -0.212118 -0.0619485
-0.00101726 -0.240718 -0.0741633
-0.0155908 -0.271506 -0.0640876
-0.044899 -0.3146 -0.0333351
-0.0855852 -0.371409 0.00685796
-0.130342 -0.430138 0.041484
-0.166199 -0.468534 0.05793
-0.18111 -0.45984 0.0509151
-0.166022 -0.387901 0.0274235
-0.118431 -0.259375 0.00280104
-0.0442418 -0.109236 -0.0051921
0.0417921 0.0189189 0.011477
0.121663 0.0782129 0.0542983
0.183278 0.0470824 0.114374
0.216477 -0.0465627 0.166712
0.220617 -0.160818 0.193316
0.200898 -0.246883 0.187619
0.16714 -0.27155 0.151753
-0.0202115 -0.0930917 0.0422221
-0.00259507 -0.127706 0.0278691
0.0165321 -0.157214 -0.00139772
0.0346822 -0.1781 -0.0365607
0.0449801 -0.196635 -0.0651249
0.0429798 -0.221384 -0.0768101
0.0254976 -0.264319 -0.0677944
-0.00550697 -0.32803 -0.0463483
-0.0441223 -0.400103 -0.0251883
-0.0780458 -0.456665 -0.0148664
-0.0945795 -0.468362 -0.0208761
-0.0830592 -0.415606 -0.0372054
-0.0394338 -0.301374 -0.0498652
0.0315476 -0.157015 -0.0428779
0.115435 -0.024514 -0.0107376
0.193763 0.0495893 0.0455575
0.253708 0.0403662 0.115848
0.284147 -0.030195 0.17418
0.283397 -0.124093 0.201694
0.256584 -0.197666 0.193705
0.213461 -0.220356 0.153666
-0.0197397 -0.102118 0.0817999
0.00120651 -0.132586 0.0766006
0.0282962 -0.154507 0.0471768
0.0591694 -0.165726 0.000428197
0.0871543 -0.173657 -0.0512526
0.106265 -0.188025 -0.0940284
0.110983 -0.222807 -0.115845
0.100459 -0.282544 -0.120135
0.0772627 -0.35595 -0.115841
0.0507686 -0.419947 -0.110518
0.0326993 -0.444834 -0.110397
0.0345878 -0.409072 -0.112202
0.0626175 -0.312158 -0.105683
0.114874 -0.1805 -0.0788896
0.179771 -0.0522315 -0.0299541
0.241189 0.0290574 0.0374397
0.287608 0.0369804 0.112779
0.30844 -0.0118731 0.171825
0.30136 -0.0841747 0.196976
0.270674 -0.143139 0.186018
0.22454 -0.162327 0.143904
-0.0262784 -0.122035 0.123389
-0.0044749 -0.154534 0.127822
0.0287255 -0.17418 0.0985719
0.0711476 -0.178642 0.0397481
0.116854 -0.175607 -0.0361831
0.15861 -0.175075 -0.11155
0.188651 -0.193483 -0.165346
0.202365 -0.23801 -0.195444
0.197874 -0.300256 -0.206369
0.180245 -0.360259 -0.202549
0.159006 -0.390092 -0.191711
0.145838 -0.367769 -0.17482
0.149344 -0.289707 -0.147064
0.171577 -0.176522 -0.101754
0.205729 -0.0607024 -0.0406307
0.240205 0.0193117 0.0307267
0.266241 0.0374626 0.102871
0.275007 0.00614023 0.155896
0.26391 -0.0463999 0.17542
0.235563 -0.0909292 0.161926
0.194909 -0.106378 0.121215
-0.0359551 -0.14883 0.15586
-0.0164752 -0.188757 0.168953
0.0182305 -0.211134 0.140517
0.0670301 -0.21241 0.0724404
0.125162 -0.198505 -0.0228629
0.184435 -0.180127 -0.12438
0.234844 -0.175966 -0.203312
0.268941 -0.196351 -0.252372
0.279888 -0.237199 -0.272154
0.268119 -0.28345 -0.26462
0.240443 -0.310654 -0.239758
0.208185 -0.297702 -0.203644
0.182361 -0.238486 -0.157609
0.169406 -0.147513 -0.100365
0.168263 -0.0505239 -0.0362
0.172875 0.0202404 0.0287378
0.178153 0.041589 0.0875768
0.177565 0.0222939 0.127283
0.168362 -0.0147994 0.138288
0.150749 -0.0474747 0.123095
0.125392 -0.0595902 0.0876512
-0.0462478 -0.177271 0.17114
-0.0318638 -0.227581 0.190514
-0.000824515 -0.255872 0.164615
0.0471479 -0.256584 0.0929161
0.108723 -0.233084 -0.0118322
0.17546 -0.196147 -0.126886
0.236092 -0.16688 -0.218464
0.280804 -0.158474 -0.275507
0.299312 -0.171939 -0.295766
0.287823 -0.198082 -0.279883
0.250538 -0.217014 -0.240472
0.198106 -0.20952 -0.188629
0.14355 -0.167657 -0.131395
0.0973251 -0.100115 -0.0720172
0.0639381 -0.0258628 -0.0156883
0.0429469 0.0302984 0.032332
0.0328211 0.0490731 0.0690941
0.0292087 0.0363035 0.0901172
0.0290756 0.00937303 0.0909069
0.0297987 -0.0151946 0.0752149
0.0277686 -0.02519 0.0481316
-0.0523756 -0.200674 0.164995
-0.0448279 -0.261042 0.187303
-0.0220537 -0.296008 0.165795
0.0177531 -0.297937 0.0981737
0.072817 -0.267126 -0.00388165
0.135632 -0.214178 -0.11703
0.194923 -0.161586 -0.207172
0.240027 -0.12509 -0.261585
0.258848 -0.110494 -0.27628
0.244543 -0.114518 -0.251549
0.199042 -0.122271 -0.201827
0.131841 -0.117141 -0.141724
0.0569201 -0.0901528 -0.0822815
-0.0125646 -0.0450307 -0.0295791
-0.0678616 0.00566478 0.0115195
-0.105191 0.0443857 0.0377468
-0.123155 0.0563794 0.0504515
-0.124366 0.0451882 0.0529007
-0.11185 0.0236046 0.0450325
-0.0909851 0.00362283 0.0300844
-0.0685766 -0.00531626 0.0120457
-0.0482009 -0.213764 0.143982
-0.0475392 -0.280767 0.166776
-0.0360306 -0.320481 0.15062
-0.0104707 -0.323522 0.0922491
0.0290916 -0.288076 0.00279708
0.0772873 -0.223681 -0.0968979
0.124711 -0.153619 -0.175485
0.161374 -0.0947967 -0.220014
0.175105 -0.0569467 -0.226004
0.157698 -0.0416116 -0.193997
0.109207 -0.0385323 -0.139168
0.0373706 -0.033962 -0.0779012
-0.0444646 -0.0186761 -0.023386
-0.122572 0.00735474 0.0169617
-0.186302 0.0370571 0.0395356
-0.229066 0.0589213 0.0438007
-0.247838 0.0626147 0.0346355
-0.243815 0.0502705 0.0212668
-0.219979 0.0305125 0.00606349
-0.183161 0.012085 -0.00714813
-0.141649 0.00266644 -0.0163808
-0.0337945 -0.212336 0.11281
-0.0384334 -0.280431 0.133908
-0.0382229 -0.321294 0.123323
-0.0289072 -0.325101 0.077919
-0.00879124 -0.288345 0.00681288
0.0195457 -0.219217 -0.0721694
0.0496292 -0.140263 -0.133484
0.0739344 -0.0684604 -0.165161
0.0810491 -0.0156695 -0.162774
0.062842 0.0132457 -0.12731
0.0180011 0.0246973 -0.0733658
-0.0478976 0.0295866 -0.0170754
-0.123566 0.0366582 0.0281839
-0.196842 0.0483038 0.0548488
-0.256687 0.0615269 0.0611064
-0.295831 0.0696273 0.0486165
-0.310626 0.0657715 0.0244015
-0.301446 0.0512325 0.000441303
-0.271272 0.0315936 -0.018536
-0.22708 0.0132776 -0.0294201
-0.176359 0.00283788 -0.0318166
-0.0150828 -0.195267 0.0783958
-0.0225468 -0.258475 0.0956223
-0.0307563 -0.296797 0.0896952
-0.0348343 -0.30089 0.0580171
-0.0318859 -0.266471 0.00751136
-0.0218653 -0.200264 -0.0484519
-0.00820348 -0.12259 -0.0910621
0.00405919 -0.0489011 -0.1107
0.00585541 0.00854203 -0.102719
-0.00977002 0.0434793 -0.0686781
-0.0448623 0.0596673 -0.0211392
-0.0960481 0.0653357 0.0258277
-0.155375 0.0679995 0.0603327
-0.213108 0.0709327 0.0756242
-0.260341 0.0732987 0.0713162
-0.290103 0.0717978 0.0503963
-0.299323 0.0626764 0.0202997
-0.287917 0.0465158 -0.00740125
-0.258621 0.0264674 -0.026877
-0.217379 0.00804304 -0.0357045
-0.169566 -0.00329798 -0.0350189
0.0165452 -0.0559145 -0.259008
0.0494984 -0.0768506 -0.317323
0.0912615 -0.0953648 -0.336618
0.13666 -0.108216 -0.314491
0.180823 -0.113109 -0.2591
0.219068 -0.11064 -0.186542
0.24864 -0.102732 -0.124985
0.266694 -0.0922083 -0.0867228
0.272582 -0.0808117 -0.0739139
0.26819 -0.067832 -0.0855953
0.253804 -0.0545492 -0.109934
0.230582 -0.0435424 -0.134645
0.200208 -0.0396241 -0.149996
0.165539 -0.0491946 -0.15066
0.131892 -0.074885 -0.136873
0.104535 -0.117288 -0.112296
0.0844583 -0.171104 -0.0827847
0.0708683 -0.215477 -0.0543457
0.0629213 -0.237859 -0.02902
0.0587816 -0.229228 -0.0111914
0.0556341 -0.189955 -0.000755794
-0.00284405 -0.0766725 -0.302502
0.0335422 -0.107748 -0.370187
0.0827639 -0.138021 -0.393357
0.13807 -0.16203 -0.371477
0.193943 -0.175971 -0.314362
0.245649 -0.177433 -0.237686
0.289507 -0.167489 -0.173974
0.321748 -0.149394 -0.136195
0.339786 -0.126015 -0.124838
0.344876 -0.0975709 -0.136655
0.335754 -0.0668615 -0.158405
0.312519 -0.038527 -0.176712
0.276471 -0.0201592 -0.181936
0.231177 -0.0216571 -0.169938
0.183464 -0.0475873 -0.142921
0.140704 -0.0998365 -0.106293
0.10565 -0.17181 -0.0675473
0.0790489 -0.235588 -0.0339165
0.0611324 -0.273264 -0.00663442
0.0507461 -0.271301 0.00994317
0.044504 -0.228646 0.0165187
-0.0355389 -0.0996723 -0.299983
-0.00272576 -0.143483 -0.367154
0.0472099 -0.188147 -0.392436
0.107244 -0.226491 -0.376306
0.172335 -0.252078 -0.328408
0.237167 -0.25901 -0.262302
0.297073 -0.2475 -0.208898
0.346928 -0.220801 -0.179324
0.38254 -0.182816 -0.172111
0.402728 -0.135183 -0.181852
0.404139 -0.0821718 -0.195537
0.384934 -0.0306636 -0.200929
0.345841 0.00840396 -0.190468
0.290726 0.0206848 -0.162478
0.228187 -0.00164304 -0.121553
0.167637 -0.0625794 -0.0746209
0.114505 -0.154474 -0.0300601
0.0720316 -0.241595 0.00435814
0.0423611 -0.29972 0.0289429
0.0252602 -0.309532 0.0400883
0.0169425 -0.26763 0.0397265
-0.0732129 -0.12377 -0.25283
-0.0485497 -0.182965 -0.312409
-0.00382062 -0.244168 -0.339053
0.0562117 -0.297384 -0.333454
0.126928 -0.334302 -0.301494
0.202575 -0.346155 -0.256699
0.277723 -0.332509 -0.222004
0.345486 -0.296955 -0.204967
0.400299 -0.244179 -0.201803
0.437945 -0.176963 -0.207153
0.452529 -0.100351 -0.209309
0.4399 -0.0229748 -0.198972
0.400078 0.0408839 -0.171898
0.337179 0.0717717 -0.129148
0.260825 0.0575725 -0.0773929
0.182894 -0.00929883 -0.0241919
0.111753 -0.120741 0.0219401
0.0532772 -0.233175 0.053325
0.0118755 -0.31565 0.0717818
-0.0115494 -0.342077 0.0749776
-0.0208979 -0.305379 0.0658233
-0.104188 -0.146612 -0.176505
-0.0899739 -0.222194 -0.225072
-0.0544618 -0.299748 -0.253092
0.000456555 -0.366675 -0.258748
0.0720525 -0.412252 -0.247294
0.153404 -0.427614 -0.227993
0.238784 -0.411943 -0.213532
0.320479 -0.36936 -0.206763
0.391388 -0.304951 -0.204214
0.444255 -0.221665 -0.202098
0.470976 -0.123983 -0.191515
0.465321 -0.0212189 -0.167144
0.426681 0.0694113 -0.128028
0.359283 0.122958 -0.0770147
0.273192 0.121849 -0.0214606
0.182138 0.0533096 0.0317343
0.0970318 -0.0750974 0.0749181
0.0260266 -0.212659 0.100609
-0.0244246 -0.321833 0.11195
-0.0523537 -0.368853 0.107094
-0.0612567 -0.341567 0.0895883
-0.12104 -0.166635 -0.0921164
-0.11543 -0.256225 -0.128252
-0.0894237 -0.34724 -0.157867
-0.0426365 -0.424554 -0.176927
0.0232297 -0.476185 -0.186491
0.101582 -0.493732 -0.190369
0.186796 -0.477491 -0.190354
0.27116 -0.43213 -0.186923
0.347142 -0.362314 -0.179406
0.406105 -0.269852 -0.166455
0.439188 -0.157009 -0.143851
0.439185 -0.0323115 -0.110367
0.405052 0.0849199 -0.0672657
0.340546 0.164136 -0.0173633
0.254775 0.181174 0.0332768
0.1615 0.116613 0.0799039
0.0727407 -0.0238876 0.116393
-0.00241167 -0.183981 0.135392
-0.0561353 -0.320036 0.140436
-0.0855155 -0.389957 0.129491
-0.0930616 -0.375241 0.106083
-0.114714 -0.180342 -0.0306599
-0.112559 -0.279032 -0.060412
-0.0932299 -0.378142 -0.0934157
-0.0551716 -0.460563 -0.122865
6.07724e-05 -0.514595 -0.144856
0.0664823 -0.533316 -0.157598
0.13903 -0.519493 -0.157597
0.211307 -0.478206 -0.146141
0.277149 -0.4124 -0.126555
0.329138 -0.321139 -0.10184
0.359875 -0.202562 -0.0725595
0.362807 -0.0626415 -0.0399152
0.336799 0.0783747 -0.00481064
0.284394 0.184608 0.0327539
0.212135 0.224362 0.0701516
0.130762 0.17053 0.10604
0.0514895 0.0252195 0.13585
-0.0174036 -0.151906 0.151257
-0.0677971 -0.311952 0.154259
-0.0959588 -0.404692 0.14167
-0.102851 -0.404152 0.115872
-0.0886253 -0.186286 0.000263201
-0.0850771 -0.28711 -0.0292712
-0.0693652 -0.386956 -0.0663507
-0.0403322 -0.468216 -0.100996
-0.00033134 -0.520201 -0.123801
0.0455978 -0.539299 -0.130173
0.0935243 -0.531661 -0.116794
0.13968 -0.502305 -0.0879533
0.180901 -0.451519 -0.0520847
0.21368 -0.373822 -0.0175547
0.234202 -0.261287 0.0110267
0.238225 -0.11546 0.0322555
0.22484 0.0439206 0.0483619
0.194665 0.176427 0.0646282
0.149858 0.242577 0.0834174
0.0960066 0.20652 0.107316
0.0404484 0.0655361 0.132932
-0.0111387 -0.120462 0.149611
-0.0513135 -0.298395 0.155761
-0.0757837 -0.410907 0.145903
-0.0835392 -0.424332 0.120839
-0.0531149 -0.183146 0.00630571
-0.0453628 -0.278963 -0.0261954
-0.0312513 -0.371229 -0.0662164
-0.0111782 -0.443886 -0.100315
0.0110374 -0.489312 -0.115762
0.0314791 -0.508067 -0.107051
0.0477268 -0.509896 -0.07357
0.0593112 -0.499768 -0.0241565
0.0672166 -0.474401 0.0272404
0.0736246 -0.422281 0.0671989
0.0797592 -0.327936 0.0882697
0.0848778 -0.186887 0.0908425
0.0885275 -0.0168405 0.0822268
0.0889113 0.138556 0.074248
0.0825265 0.232582 0.0746121
0.0680589 0.220572 0.0893643
0.0473864 0.0934985 0.115435
0.0216947 -0.0912357 0.138612
-0.00355333 -0.278553 0.152244
-0.0237626 -0.405069 0.148003
-0.0349329 -0.430773 0.1251
-0.0185776 -0.17232 -0.00304675
-0.00542664 -0.256268 -0.0385406
0.00867201 -0.33389 -0.0795294
0.0214192 -0.392094 -0.11077
0.0272943 -0.427758 -0.117202
0.0232762 -0.445678 -0.0926559
0.0083298 -0.458974 -0.0407807
-0.0147681 -0.472577 0.0251106
-0.0407288 -0.479279 0.0865528
-0.0612049 -0.460949 0.126456
-0.0694378 -0.394063 0.136075
-0.0620861 -0.267273 0.118813
-0.0389792 -0.0949309 0.087526
-0.00439371 0.0778562 0.0602236
0.0321537 0.198586 0.0488995
0.0618689 0.214691 0.0616017
0.0802854 0.110056 0.0944041
0.0833069 -0.0630258 0.128587
0.073701 -0.249616 0.151993
0.056274 -0.383094 0.153862
0.0382418 -0.418259 0.13235
0.00548622 -0.157932 -0.00861031
0.0235331 -0.225784 -0.0441687
0.0391314 -0.28429 -0.0844582
0.0483489 -0.324251 -0.113791
0.0441601 -0.347661 -0.116206
0.0238065 -0.363234 -0.0848721
-0.0130929 -0.387049 -0.0258946
-0.0614854 -0.424412 0.0447389
-0.112835 -0.464572 0.106196
-0.153746 -0.48323 0.140096
-0.172593 -0.449361 0.137768
-0.162093 -0.344628 0.105588
-0.121187 -0.178924 0.0607929
-0.0559936 0.00335155 0.0255716
0.0188555 0.146271 0.0139187
0.0879716 0.19135 0.0337466
0.140983 0.115311 0.0791597
0.168797 -0.0366907 0.126774
0.17129 -0.211909 0.159589
0.153398 -0.343791 0.165634
0.125167 -0.384836 0.14308
0.0138201 -0.14585 0.00312112
0.0356902 -0.19723 -0.0277956
0.0549102 -0.235993 -0.0666085
0.0665983 -0.256843 -0.0985483
0.0626214 -0.266493 -0.107716
0.0395942 -0.276911 -0.0856453
-0.00344347 -0.306797 -0.0368234
-0.0609253 -0.36261 0.0230628
-0.123149 -0.431254 0.0735406
-0.173995 -0.483829 0.0974408
-0.198549 -0.483412 0.0868054
-0.186212 -0.405363 0.0496916
-0.134558 -0.254395 0.00521536
-0.050171 -0.0719331 -0.0233765
0.0492761 0.0856529 -0.0229813
0.144074 0.156721 0.0120479
0.219555 0.111716 0.0732856
0.262855 -0.0125294 0.133633
0.271217 -0.167179 0.172964
0.249514 -0.289199 0.179844
0.209536 -0.331894 0.153653
0.00551996 -0.140384 0.0363424
0.0302368 -0.178052 0.0145182
0.0556765 -0.199986 -0.0231849
0.0767913 -0.203648 -0.0640061
0.0847112 -0.199282 -0.0923506
0.0745107 -0.2012 -0.0966666
0.0431854 -0.23044 -0.0750816
-0.00533661 -0.295397 -0.0398031
-0.0627712 -0.382409 -0.00842772
-0.113126 -0.460397 0.00490271
-0.140146 -0.488966 -0.00724631
-0.130749 -0.438619 -0.0372652
-0.0803927 -0.308695 -0.0673112
0.00574469 -0.13554 -0.0764946
0.109875 0.0271798 -0.055172
0.211087 0.117968 -0.00136077
0.292788 0.102695 0.0742676
0.340121 0.00958307 0.14307
0.348246 -0.117818 0.184173
0.321538 -0.223152 0.188456
0.271841 -0.263661 0.157416
-0.017914 -0.144324 0.08546
0.00826351 -0.174515 0.0751735
0.0418942 -0.185213 0.0374488
0.0780329 -0.175888 -0.0174002
0.107389 -0.158315 -0.0739361
0.122736 -0.148075 -0.116294
0.117693 -0.168472 -0.132652
0.0925877 -0.230569 -0.129431
0.0518408 -0.322228 -0.119716
0.00870648 -0.413138 -0.113788
-0.0210526 -0.462278 -0.119423
-0.022619 -0.437203 -0.131825
0.0115965 -0.332179 -0.137451
0.0798626 -0.176853 -0.120538
0.167426 -0.0193216 -0.0763355
0.255408 0.0823875 -0.00681492
0.327845 0.0919134 0.0763297
0.369733 0.0293941 0.146159
0.374775 -0.0678408 0.183385
0.346076 -0.152483 0.182358
0.29347 -0.187802 0.147251
-0.0483681 -0.15818 0.13633
-0.0225364 -0.188651 0.137534
0.0184942 -0.195691 0.0995226
0.069956 -0.178569 0.0293594
0.122773 -0.149389 -0.0571428
0.167433 -0.123586 -0.139217
0.194261 -0.126886 -0.194175
0.198613 -0.173596 -0.22177
0.179631 -0.255137 -0.229986
0.146112 -0.344839 -0.225375
0.111823 -0.403871 -0.217249
0.0924183 -0.398945 -0.205683
0.0989565 -0.320007 -0.183606
0.134444 -0.189119 -0.141843
0.189546 -0.0466442 -0.0805177
0.250026 0.0557058 -0.00456264
0.302552 0.0816087 0.0752502
0.333713 0.0447757 0.13672
0.336545 -0.0239177 0.1644
0.312023 -0.0872226 0.156969
0.266002 -0.11609 0.120636
-0.0798382 -0.177906 0.174916
-0.0571766 -0.215746 0.18592
-0.0132871 -0.226533 0.147937
0.0486611 -0.207858 0.0656769
0.120046 -0.169112 -0.044708
0.189596 -0.126147 -0.158094
0.244002 -0.106467 -0.242238
0.274668 -0.12769 -0.290906
0.274781 -0.186534 -0.307675
0.248102 -0.262257 -0.296427
0.205627 -0.320546 -0.269235
0.163144 -0.32925 -0.232319
0.135206 -0.275039 -0.185998
0.129996 -0.172255 -0.127757
0.144893 -0.0523365 -0.0612155
0.171595 0.0407557 0.00748329
0.200928 0.0741995 0.0704656
0.222003 0.05606 0.113478
0.227656 0.0105276 0.126856
0.216166 -0.0342868 0.112982
0.18808 -0.0566693 0.0793045
-0.107311 -0.198954 0.191997
-0.0907989 -0.248234 0.20971
-0.0499864 -0.267737 0.173814
0.0138077 -0.251968 0.0864873
0.0931393 -0.206714 -0.0352978
0.175751 -0.147073 -0.164167
0.246223 -0.102313 -0.261716
0.292305 -0.09274 -0.317385
0.303151 -0.121049 -0.331774
0.277644 -0.173753 -0.307572
0.22389 -0.222646 -0.260259
0.157194 -0.238333 -0.202238
0.0950024 -0.205472 -0.140726
0.0501483 -0.131328 -0.0786962
0.026594 -0.0386798 -0.0211176
0.0222677 0.0381891 0.0264993
0.0323372 0.0711742 0.0610629
0.0486218 0.0640702 0.0785738
0.0639723 0.0346649 0.0752503
0.0736342 0.00332672 0.0562887
0.072861 -0.013887 0.0290367
-0.122742 -0.214924 0.18275
-0.11436 -0.275943 0.203307
-0.0823866 -0.305867 0.172263
-0.026218 -0.295929 0.0896525
0.0483484 -0.247659 -0.0284885
0.129799 -0.174983 -0.154023
0.202208 -0.107545 -0.248087
0.251847 -0.0677847 -0.298213
0.265602 -0.0638574 -0.303135
0.238596 -0.0896989 -0.265453
0.176113 -0.123919 -0.20317
0.0921008 -0.141066 -0.133165
0.00538756 -0.125134 -0.0675801
-0.0681596 -0.0775953 -0.0127707
-0.119463 -0.0132442 0.0263721
-0.145841 0.0431985 0.0465022
-0.148074 0.069404 0.0500678
-0.131904 0.0661966 0.0424169
-0.103899 0.0460055 0.0247113
-0.0716365 0.0232367 0.00267034
-0.0439304 0.00978012 -0.0168975
-0.118753 -0.22096 0.154988
-0.119003 -0.290119 0.175076
-0.100398 -0.328406 0.150245
-0.0607269 -0.324318 0.0788849
-0.00333094 -0.276267 -0.0233569
0.0626306 -0.195965 -0.131563
0.123506 -0.112615 -0.210231
0.165915 -0.0489404 -0.246681
0.176552 -0.0175691 -0.239072
0.148387 -0.0185269 -0.190444
0.0840193 -0.036912 -0.119963
-0.00498167 -0.0517986 -0.0468617
-0.100544 -0.0477942 0.0140082
-0.186232 -0.02229 0.0546752
-0.250519 0.0166621 0.0714937
-0.287133 0.0522485 0.0644714
-0.294379 0.0683171 0.0405177
-0.275747 0.0640719 0.0120653
-0.237044 0.0474408 -0.0170592
-0.187194 0.0285646 -0.0398154
-0.137116 0.0166012 -0.0513114
-0.0962195 -0.213519 0.115538
-0.103286 -0.284604 0.132823
-0.0988919 -0.326674 0.114748
-0.0794406 -0.32737 0.0594108
-0.0456652 -0.282634 -0.0201273
-0.00326313 -0.201721 -0.102917
0.0379138 -0.111723 -0.160195
0.0675864 -0.0344054 -0.180588
0.0730609 0.0152892 -0.162161
0.0465567 0.0331125 -0.108332
-0.0115331 0.0284692 -0.0377134
-0.0927064 0.0177022 0.0306128
-0.181597 0.0145693 0.0814434
-0.263739 0.0239536 0.106515
-0.326677 0.0426355 0.104282
-0.363079 0.0603991 0.0774169
-0.369897 0.0660295 0.0353931
-0.348981 0.0583261 -0.00626356
-0.305401 0.041988 -0.0409451
-0.248039 0.0241379 -0.0622376
-0.187158 0.0124956 -0.0672704
-0.0630219 -0.19257 0.0743903
-0.0737512 -0.258828 0.0869235
-0.0806653 -0.29969 0.0751427
-0.0792805 -0.303471 0.0368143
-0.0678195 -0.264971 -0.0180151
-0.0484657 -0.19099 -0.073788
-0.0268779 -0.105036 -0.109826
-0.0102632 -0.0261294 -0.11723
-0.0088236 0.0306424 -0.0934364
-0.0297554 0.0587702 -0.0421359
-0.0743696 0.0638551 0.0206281
-0.137303 0.0579672 0.0782453
-0.207605 0.0523773 0.117207
-0.273527 0.0524442 0.130048
-0.324692 0.0574296 0.116953
-0.353781 0.0620062 0.0818923
-0.357934 0.0593873 0.0347147
-0.337843 0.0481449 -0.00984932
-0.297719 0.0304485 -0.043871
-0.245068 0.0123983 -0.0622324
-0.187748 0.000543087 -0.0641727
0.0240232 -0.0436818 -0.282629
0.0526103 -0.0591841 -0.341179
0.0874934 -0.070858 -0.354536
0.123833 -0.0751695 -0.3218
0.157875 -0.0704817 -0.253532
0.185735 -0.0585449 -0.168666
0.205619 -0.0428538 -0.0992119
0.214574 -0.0292097 -0.058879
0.211903 -0.0212555 -0.0496818
0.199361 -0.018935 -0.0696946
0.177593 -0.0225567 -0.105314
0.14863 -0.0325644 -0.14222
0.115137 -0.0509515 -0.168551
0.0807685 -0.0811742 -0.17684
0.0516065 -0.123707 -0.165992
0.0333606 -0.177775 -0.139066
0.0252586 -0.237746 -0.10236
0.0249522 -0.281235 -0.0637452
0.0304306 -0.296703 -0.0291914
0.0382486 -0.277269 -0.0050408
0.0446744 -0.224961 0.00712952
0.00515885 -0.0686077 -0.32388
0.0364005 -0.0961677 -0.391016
0.077691 -0.120222 -0.407418
0.123114 -0.134856 -0.374458
0.168393 -0.13682 -0.304669
0.209593 -0.125492 -0.216149
0.244193 -0.104485 -0.145156
0.267861 -0.0809016 -0.105911
0.277683 -0.0601603 -0.0986148
0.274401 -0.043376 -0.118844
0.256777 -0.0319082 -0.151758
0.225839 -0.0276122 -0.182188
0.184151 -0.0346548 -0.19858
0.136511 -0.0595257 -0.194709
0.0910794 -0.104624 -0.171386
0.0561779 -0.170574 -0.133098
0.0329133 -0.25052 -0.0874973
0.0204183 -0.314348 -0.0435587
0.0176401 -0.345129 -0.00672648
0.0214339 -0.331264 0.0164344
0.026825 -0.273424 0.0248988
-0.0260615 -0.0996757 -0.313077
0.00281762 -0.143255 -0.378722
0.0462582 -0.183611 -0.397775
0.0985051 -0.21239 -0.372635
0.155631 -0.223784 -0.315375
0.2129 -0.214491 -0.240842
0.266617 -0.188428 -0.182491
0.310564 -0.153479 -0.152151
0.339884 -0.116598 -0.147989
0.352474 -0.0804963 -0.163637
0.344656 -0.0475291 -0.18525
0.315446 -0.0211668 -0.199726
0.26706 -0.00848202 -0.198373
0.205098 -0.0203136 -0.177844
0.140081 -0.0625193 -0.141342
0.0831445 -0.138315 -0.0945109
0.0384015 -0.239925 -0.045122
0.00783694 -0.328667 -0.00225216
-0.00764683 -0.38114 0.0304081
-0.0105099 -0.37934 0.0472307
-0.00666485 -0.321276 0.0481854
-0.0586226 -0.133731 -0.254498
-0.0344207 -0.196655 -0.312237
0.00826431 -0.256209 -0.334911
0.0656206 -0.300562 -0.324525
0.133919 -0.321648 -0.288303
0.207759 -0.314329 -0.240159
0.281962 -0.282963 -0.203296
0.3481 -0.236459 -0.185317
0.399525 -0.182815 -0.182138
0.430925 -0.125908 -0.188309
0.435667 -0.0683445 -0.192504
0.41034 -0.0148288 -0.186017
0.356599 0.0243575 -0.164614
0.280804 0.0329129 -0.128215
0.194988 2.45534e-05 -0.082037
0.113686 -0.0819698 -0.0317529
0.0445793 -0.205122 0.0156822
-0.00715918 -0.321893 0.0521879
-0.0381676 -0.401696 0.0761484
-0.0496954 -0.418645 0.0831387
-0.0482044 -0.366307 0.0742255
-0.0791356 -0.1671 -0.168253
-0.059778 -0.250363 -0.216072
-0.0194344 -0.329128 -0.243968
0.0404248 -0.388291 -0.250166
0.117252 -0.417024 -0.240252
0.204155 -0.410953 -0.222524
0.294858 -0.375097 -0.20758
0.37982 -0.319268 -0.197702
0.450577 -0.251942 -0.18978
0.498767 -0.176925 -0.181251
0.515162 -0.0956754 -0.165186
0.494118 -0.0131791 -0.13853
0.436656 0.0571534 -0.101502
0.349615 0.0926948 -0.0562053