# vtk DataFile Version 2.0
Func
ASCII
DATASET RECTILINEAR_GRID
DIMENSIONS 21 21 21
X_COORDINATES 21 double
-4.7619
-4.28571
-3.80952
-3.33333
-2.85714
-2.38095
-1.90476
-1.42857
-0.952381
-0.47619
0
0.47619
0.952381
1.42857
1.90476
2.38095
2.85714
3.33333
3.80952
4.28571
4.7619
Y_COORDINATES 21 double
-4.7619
-4.28571
-3.80952
-3.33333
-2.85714
-2.38095
-1.90476
-1.42857
-0.952381
-0.47619
0
0.47619
0.952381
1.42857
1.90476
2.38095
2.85714
3.33333
3.80952
4.28571
4.7619
Z_COORDINATES 21 double
-4.7619
-4.28571
-3.80952
-3.33333
-2.85714
-2.38095
-1.90476
-1.42857
-0.952381
-0.47619
0
0.47619
0.952381
1.42857
1.90476
2.38095
2.85714
3.33333
3.80952
4.28571
4.7619
POINT_DATA 9261
SCALARS data double 3
LOOKUP_TABLE default
0.0129308 -0.135605 -0.204279
0.0327216 -0.114705 -0.248155
0.0497082 -0.0497784 -0.26226
0.0598418 0.0449883 -0.245646
0.0599581 0.147242 -0.203088
0.0490918 0.227783 -0.148788
0.0325906 0.262495 -0.0974509
0.0147996 0.25189 -0.0509702
0.00465379 0.21053 -0.00669708
0.00989547 0.157525 0.0345135
0.0304907 0.112945 0.0717299
0.0622526 0.0879892 0.0990692
0.0981457 0.0837471 0.108802
0.130316 0.0942904 0.094927
0.152777 0.109073 0.0593689
0.162563 0.119323 0.00901508
0.160769 0.12186 -0.0439854
0.150404 0.114004 -0.0865742
0.134717 0.0977058 -0.109843
0.11649 0.076019 -0.111497
0.0968991 0.0520948 -0.0941568
-0.00318316 -0.155341 -0.265792
0.0176118 -0.127044 -0.326963
0.038401 -0.0476741 -0.352497
0.053871 0.0647879 -0.339966
0.060499 0.181804 -0.292973
0.0567446 0.270579 -0.224929
0.0472794 0.303534 -0.154801
0.0355626 0.282794 -0.0855142
0.029789 0.227224 -0.0158762
0.0383115 0.160417 0.050524
0.0609839 0.107035 0.109349
0.0937767 0.0800663 0.151276
0.129874 0.0798042 0.165961
0.161867 0.0978885 0.146549
0.18432 0.120721 0.096763
0.194728 0.137525 0.0266309
0.194421 0.144161 -0.0468727
0.186123 0.137431 -0.106031
0.172367 0.120127 -0.139772
0.15479 0.0957183 -0.144691
0.133443 0.0678998 -0.1236
-0.0256641 -0.162821 -0.306117
-0.00737015 -0.126579 -0.382696
0.0148185 -0.0342883 -0.421895
0.0352924 0.0923404 -0.41907
0.0505124 0.219189 -0.374469
0.057862 0.310801 -0.299706
0.0602589 0.336801 -0.214846
0.0583342 0.301673 -0.124042
0.0585378 0.229038 -0.0280024
0.0687007 0.147398 0.0657472
0.0889101 0.0857739 0.148354
0.116322 0.0585567 0.206474
0.145909 0.0646549 0.227205
0.172024 0.0925208 0.203269
0.190942 0.125397 0.140386
0.201238 0.150483 0.0520081
0.204118 0.162519 -0.0404779
0.201339 0.157866 -0.115082
0.193722 0.14038 -0.15882
0.180964 0.114021 -0.167624
0.161221 0.0832943 -0.144796
-0.0511679 -0.160619 -0.318106
-0.036777 -0.116352 -0.405604
-0.015145 -0.0134653 -0.457883
0.00984904 0.123265 -0.467452
0.0342675 0.254088 -0.430237
0.0538064 0.342008 -0.356579
0.0690482 0.355297 -0.264551
0.0774842 0.301717 -0.158416
0.083287 0.210183 -0.0405324
0.0929973 0.114154 0.0771863
0.107074 0.0466148 0.18145
0.12439 0.0226009 0.254905
0.142577 0.0387131 0.282253
0.158743 0.0793635 0.255902
0.171537 0.124414 0.183459
0.18085 0.159111 0.0812119
0.187766 0.177081 -0.0256451
0.192736 0.174779 -0.112205
0.194228 0.157725 -0.164042
0.189699 0.130661 -0.176776
0.1746 0.0985462 -0.154355
-0.0716431 -0.151521 -0.297332
-0.061396 -0.100926 -0.388683
-0.0421549 0.00896995 -0.450364
-0.014855 0.150583 -0.471776
0.0169 0.279603 -0.446823
0.0467113 0.357702 -0.383355
0.0727165 0.353343 -0.294563
0.089946 0.278508 -0.183287
0.100135 0.167787 -0.053704
0.107833 0.0594935 0.0791539
0.113836 -0.010024 0.198496
0.118779 -0.0260342 0.283651
0.123129 0.0046992 0.317403
0.12705 0.0616618 0.291811
0.132023 0.121107 0.215578
0.13913 0.166272 0.106974
0.149506 0.189976 -0.00677971
0.162271 0.189482 -0.0991855
0.173675 0.172837 -0.155724
0.178875 0.145649 -0.171404
0.170317 0.113248 -0.151111
-0.079693 -0.140727 -0.244444
-0.073248 -0.0865427 -0.329438
-0.0573152 0.0257344 -0.393484
-0.0300072 0.166363 -0.425306
0.00572554 0.287675 -0.416223
0.042285 0.350934 -0.370747
0.0758428 0.325849 -0.295354
0.09961 0.229265 -0.191146
0.112901 0.10152 -0.0634891
0.117847 -0.0147211 0.0717863
0.115281 -0.0806694 0.195704
0.107205 -0.0829551 0.285768
0.096585 -0.0326741 0.323782
0.0865714 0.0440767 0.301572
0.0815229 0.11974 0.22768
0.084192 0.175781 0.121027
0.0958115 0.204416 0.00900177
0.114506 0.204563 -0.082354
0.134614 0.18741 -0.139201
0.149382 0.159661 -0.15613
0.148752 0.126976 -0.138688
-0.065646 -0.132952 -0.170715
-0.0614065 -0.0791373 -0.240528
-0.048642 0.0301298 -0.299428
-0.0234278 0.16393 -0.336659
0.0123807 0.272665 -0.343001
0.051047 0.317666 -0.319494
0.0878241 0.270926 -0.266429
0.115219 0.154362 -0.182253
0.129864 0.0138981 -0.0714641
0.131575 -0.104249 0.0518523
0.1208 -0.159959 0.168838
0.10026 -0.142335 0.25689
0.0747095 -0.0676379 0.297417
0.0498672 0.0320733 0.281367
0.0326809 0.125264 0.215646
0.0280043 0.191918 0.118046
0.0373601 0.224039 0.0142931
0.058256 0.222945 -0.0708096
0.0839304 0.203442 -0.124316
0.106222 0.173585 -0.14022
0.113653 0.139487 -0.124386
-0.0251125 -0.131462 -0.0852845
-0.0198651 -0.0825663 -0.132689
-0.00884747 0.0178051 -0.178795
0.0133215 0.138822 -0.215249
0.0458633 0.23122 -0.233666
0.081948 0.256197 -0.233414
0.1172 0.189251 -0.209663
0.143804 0.0573531 -0.15721
0.156688 -0.0888344 -0.0773501
0.153581 -0.200788 0.0201569
0.134273 -0.238557 0.119172
0.10156 -0.194897 0.198782
0.0611061 -0.0918811 0.24043
0.0204789 0.0325209 0.233238
-0.0111817 0.142946 0.180898
-0.0269198 0.218187 0.0981546
-0.0242924 0.250914 0.00736635
-0.00574211 0.245687 -0.0682165
0.0216223 0.220964 -0.115994
0.0490485 0.186438 -0.128898
0.0647011 0.149064 -0.112797
0.0370679 -0.135049 -0.000229459
0.0466852 -0.0948853 -0.0218315
0.0578479 -0.00799186 -0.0503365
0.0767419 0.095951 -0.0808089
0.103812 0.168937 -0.107891
0.133798 0.1735 -0.130701
0.163232 0.0896794 -0.140272
0.185038 -0.051054 -0.12714
0.193037 -0.194633 -0.0875937
0.183099 -0.291868 -0.0250683
0.154136 -0.30482 0.0490318
0.108534 -0.230991 0.116793
0.0522174 -0.0984228 0.159777
-0.00590679 0.0496684 0.164181
-0.0547149 0.174745 0.129132
-0.0848853 0.255101 0.0648428
-0.0928524 0.284956 -0.0108723
-0.0802545 0.27252 -0.0760998
-0.0536699 0.239987 -0.11756
-0.0220077 0.19843 -0.126439
0.00302291 0.155882 -0.108276
0.109506 -0.138824 0.0707992
0.125394 -0.108877 0.0730219
0.137879 -0.0377784 0.0616251
0.153174 0.046075 0.0377226
0.172751 0.0976796 0.00320053
0.193448 0.082661 -0.0410106
0.213253 -0.0134432 -0.0834204
0.226399 -0.155539 -0.110275
0.226212 -0.288057 -0.111976
0.207154 -0.363193 -0.08512
0.167249 -0.347029 -0.0356536
0.108221 -0.242625 0.0218193
0.0358788 -0.0834742 0.0685505
-0.0399284 0.0834429 0.0868303
-0.106315 0.217736 0.0705085
-0.151536 0.298182 0.0244136
-0.170817 0.321505 -0.0383845
-0.164673 0.299454 -0.0958788
-0.138774 0.257203 -0.132843
-0.102069 0.20708 -0.13805
-0.066076 0.157968 -0.116047
0.176418 -0.137599 0.119997
0.198048 -0.116472 0.139657
0.211336 -0.0610322 0.140366
0.222006 0.002349 0.120002
0.232241 0.0328409 0.0773905
0.241126 0.000824829 0.0138792
0.248236 -0.101994 -0.0575553
0.249368 -0.238101 -0.119289
0.237786 -0.352595 -0.156004
0.207119 -0.401087 -0.158161
0.154805 -0.355483 -0.126887
0.0820741 -0.224713 -0.0742305
-0.0053343 -0.0465611 -0.0200542
-0.0967958 0.13037 0.0133769
-0.177893 0.265711 0.014666
-0.234718 0.339921 -0.0167805
-0.2616 0.353137 -0.0718899
-0.25819 0.320064 -0.126636
-0.229441 0.267444 -0.162501
-0.18465 0.208452 -0.165225
-0.135496 0.152818 -0.13784
0.222499 -0.126995 0.144423
0.246794 -0.111219 0.172823
0.258537 -0.068592 0.177907
0.262665 -0.0231994 0.155445
0.261697 -0.0111191 0.102598
0.256866 -0.0559305 0.0223468
0.249138 -0.159653 -0.0712134
0.235906 -0.283795 -0.157517
0.210713 -0.376157 -0.216869
0.167036 -0.397451 -0.235532
0.102256 -0.326641 -0.211795
0.0175462 -0.178239 -0.156679
-0.0811548 0.0074039 -0.0919468
-0.182616 0.182557 -0.0444037
-0.271281 0.309068 -0.0297694
-0.331826 0.370422 -0.0531353
-0.35844 0.370813 -0.107898
-0.350695 0.326904 -0.166051
-0.313478 0.265154 -0.204907
-0.256948 0.198934 -0.206887
-0.193462 0.138492 -0.173142
0.239461 -0.104317 0.148755
0.261926 -0.0893131 0.177953
0.268848 -0.0551478 0.179935
0.264294 -0.0235328 0.149716
0.250786 -0.025592 0.0846923
0.231406 -0.0781966 -0.00883036
0.208128 -0.17748 -0.115377
0.179862 -0.285582 -0.212775
0.140715 -0.354802 -0.279253
0.0846845 -0.352157 -0.299611
0.00972155 -0.264199 -0.272102
-0.0825167 -0.110093 -0.208534
-0.185613 0.069359 -0.132982
-0.287995 0.229857 -0.0759104
-0.373649 0.337674 -0.0555891
-0.427032 0.380549 -0.0798405
-0.443276 0.366901 -0.142544
-0.422994 0.314104 -0.210298
-0.37191 0.246362 -0.256097
-0.301509 0.17644 -0.259251
-0.225188 0.114619 -0.218955
0.229247 -0.0706347 0.145694
0.245832 -0.0517398 0.171381
0.245414 -0.0212143 0.166115
0.231106 0.00181565 0.125703
0.205237 -0.0090366 0.0492874
0.172244 -0.0641329 -0.0524718
0.134725 -0.154676 -0.161794
0.0930483 -0.244924 -0.256438
0.042108 -0.293046 -0.31534
-0.0230429 -0.272865 -0.324585
-0.103295 -0.178235 -0.285196
-0.196041 -0.0315213 -0.211365
-0.294306 0.128228 -0.129285
-0.386644 0.262404 -0.0713802
-0.45753 0.343607 -0.056122
-0.492623 0.364701 -0.0918055
-0.489177 0.337929 -0.170751
-0.450012 0.280069 -0.253487
-0.382565 0.211264 -0.309619
-0.299766 0.142795 -0.316094
-0.216267 0.083987 -0.270264
0.201008 -0.0318928 0.146289
0.209725 -0.00596091 0.16854
0.201341 0.0256429 0.156249
0.178223 0.0458474 0.106599
0.142556 0.0324878 0.0222552
0.0994247 -0.01972 -0.0810515
0.0516583 -0.0987272 -0.183079
0.000957943 -0.171963 -0.263294
-0.0569386 -0.204014 -0.303957
-0.125776 -0.175127 -0.294706
-0.204991 -0.0852505 -0.241148
-0.290778 0.041878 -0.160413
-0.375756 0.170925 -0.0797144
-0.449142 0.270598 -0.031114
-0.496769 0.32105 -0.0310573
-0.506709 0.320643 -0.0863022
-0.479079 0.284828 -0.186387
-0.419644 0.228164 -0.287149
-0.338052 0.165138 -0.355884
-0.248286 0.104464 -0.367604
-0.165371 0.0535363 -0.318228
0.169019 0.00355556 0.160624
0.17129 0.0379428 0.183924
0.157464 0.0734001 0.169165
0.129345 0.0949754 0.115654
0.0889142 0.0841551 0.0294107
0.0414597 0.0387339 -0.0687949
-0.0101458 -0.0274668 -0.155562
-0.0632547 -0.0863712 -0.213503
-0.121203 -0.108751 -0.230462
-0.186815 -0.0802538 -0.201001
-0.258231 -0.00509976 -0.136123
-0.330527 0.0935548 -0.0556387
-0.396307 0.185647 0.0137304
-0.445954 0.248013 0.0426191
-0.467321 0.268658 0.0185863
-0.451403 0.251632 -0.0621592
-0.401487 0.213301 -0.185865
-0.326341 0.165374 -0.305558
-0.237738 0.115735 -0.387093
-0.149987 0.0691884 -0.405117
-0.0773005 0.0304028 -0.355196
0.146539 0.0320666 0.19131
0.146221 0.0742967 0.221823
0.131459 0.115178 0.211472
0.103591 0.140821 0.161783
0.0646006 0.136055 0.081736
0.0193227 0.0997847 -0.00526407
-0.0293224 0.0457515 -0.0720285
-0.0780158 -0.00240369 -0.104992
-0.129308 -0.0215383 -0.0987739
-0.185437 -0.0011769 -0.0532199
-0.243603 0.0521631 0.0157721
-0.298068 0.117607 0.0867983
-0.34199 0.171241 0.135332
-0.367408 0.19795 0.136647
-0.364626 0.193426 0.083526
-0.327815 0.16579 -0.0242145
-0.263067 0.131065 -0.169734
-0.181355 0.0978796 -0.305354
-0.0957705 0.0674976 -0.397515
-0.019962 0.040263 -0.422121
0.0336205 0.0163806 -0.374645
0.133078 0.0508595 0.222124
0.133969 0.0988268 0.261085
0.122422 0.144822 0.259282
0.0997021 0.175428 0.220913
0.0679671 0.178264 0.154905
0.0304059 0.151913 0.0847345
-0.0101269 0.108658 0.0391585
-0.0494677 0.0676785 0.0282468
-0.0896493 0.0468385 0.0517323
-0.132583 0.0540972 0.10502
-0.174988 0.0824537 0.169646
-0.210952 0.11459 0.224509
-0.234788 0.13298 0.248704
-0.24057 0.129724 0.223246
-0.221214 0.106856 0.145402
-0.173234 0.0752811 0.0184074
-0.104437 0.0494939 -0.138723
-0.0266819 0.0349864 -0.281036
0.0467347 0.0266679 -0.37795
0.10393 0.0209465 -0.408197
0.134737 0.0127104 -0.366924
0.122081 0.0575217 0.239302
0.127006 0.107258 0.285174
0.121783 0.156102 0.292556
0.10793 0.19139 0.26631
0.0867679 0.202235 0.217905
0.0605683 0.185723 0.16626
0.0318762 0.151552 0.139895
0.00431462 0.114821 0.145171
-0.0225947 0.0893066 0.178093
-0.0506608 0.0816617 0.230888
-0.0767796 0.0859515 0.28494
-0.0956453 0.0891112 0.321435
-0.103273 0.0795275 0.324048
-0.0959738 0.0550039 0.279412
-0.0689171 0.0218265 0.187948
-0.020951 -0.00760091 0.0555637
0.0401396 -0.0210609 -0.099095
0.103611 -0.0164058 -0.236919
0.157707 -0.00344184 -0.33183
0.193268 0.0107574 -0.364855
0.202523 0.0165917 -0.331929
0.109344 0.0534594 0.230476
0.118552 0.100562 0.27801
0.120355 0.14891 0.291728
0.11566 0.186659 0.27663
0.105359 0.203585 0.243637
0.090913 0.195242 0.209355
0.0742664 0.168367 0.197927
0.0585173 0.134311 0.212807
0.0439439 0.104017 0.247815
0.0291882 0.083454 0.294366
0.0166324 0.0685639 0.335496
0.010387 0.0505412 0.356063
0.0126169 0.0226736 0.344531
0.0254103 -0.013379 0.292182
0.0510997 -0.0490835 0.201401
0.0895792 -0.0722274 0.0789146
0.134895 -0.0730014 -0.0592242
0.178971 -0.0519879 -0.18219
0.21256 -0.0219633 -0.267542
0.229181 0.00718978 -0.29957
0.223446 0.0234452 -0.275688
0.0876583 0.0441372 0.192832
0.0996554 0.0848243 0.234488
0.106769 0.129168 0.249801
0.109362 0.165608 0.242643
0.107415 0.184919 0.222001
0.102553 0.181832 0.20182
0.0961089 0.160446 0.200028
0.0905391 0.129157 0.217506
0.085771 0.0964979 0.248313
0.0809477 0.0679118 0.28479
0.077802 0.0414357 0.313253
0.0788207 0.011943 0.322915
0.0850605 -0.0237291 0.306512
0.0968271 -0.0621389 0.258699
0.115242 -0.0941221 0.182479
0.139951 -0.109054 0.0831942
0.166989 -0.100232 -0.0266751
0.19151 -0.0698057 -0.125136
0.207207 -0.0305884 -0.193828
0.210508 0.00631523 -0.221111
0.197918 0.0280001 -0.205126
0.0257199 -0.143046 -0.230492
0.0496031 -0.11056 -0.279976
0.0682442 -0.027207 -0.297932
0.0764844 0.088489 -0.28259
0.0714921 0.209062 -0.239951
0.0541222 0.301961 -0.183006
0.03142 0.337376 -0.127492
0.00991469 0.316951 -0.0761527
-0.000123939 0.259325 -0.0267818
0.0108619 0.188453 0.0187432
0.0425288 0.128379 0.0589847
0.0892919 0.0927028 0.0873706
0.141541 0.0828433 0.0959717
0.188695 0.0917597 0.0791349
0.222323 0.106845 0.0404472
0.238098 0.118316 -0.0113002
0.236696 0.122462 -0.0635092
0.22152 0.11585 -0.102744
0.196912 0.0998491 -0.119928
0.167529 0.0778752 -0.114248
0.135727 0.0523457 -0.0896755
0.0143518 -0.172177 -0.305517
0.0401157 -0.132713 -0.375037
0.0631507 -0.0327579 -0.404529
0.077163 0.104054 -0.391237
0.0793645 0.242855 -0.340285
0.0695462 0.346653 -0.264433
0.0540167 0.380871 -0.185076
0.0384629 0.349208 -0.106788
0.0326609 0.275664 -0.0294684
0.0470615 0.189795 0.0423377
0.0814927 0.120728 0.103767
0.130701 0.0838218 0.145104
0.185088 0.0791161 0.156295
0.234337 0.096346 0.131457
0.27016 0.11952 0.0767467
0.288296 0.136878 0.00450389
0.289225 0.144157 -0.0677585
0.275865 0.137863 -0.122316
0.251731 0.120602 -0.14816
0.220594 0.0961642 -0.143879
0.184208 0.0673491 -0.114262
-0.00357787 -0.191402 -0.355876
0.0209946 -0.145368 -0.443491
0.0468743 -0.0313022 -0.487207
0.0675126 0.122172 -0.48197
0.0798525 0.273578 -0.429429
0.0820772 0.382532 -0.341313
0.078758 0.410412 -0.241369
0.0723334 0.363752 -0.136511
0.0709995 0.2724 -0.0292474
0.0850252 0.171624 0.071552
0.115026 0.0953068 0.156277
0.157435 0.0599334 0.211481
0.204724 0.0633472 0.225216
0.248463 0.0912011 0.192098
0.282003 0.12412 0.121156
0.301871 0.148597 0.0290879
0.3079 0.159773 -0.062248
0.301509 0.15435 -0.131339
0.284074 0.136668 -0.165574
0.257317 0.110979 -0.163526
0.221369 0.080681 -0.131236
-0.0237575 -0.201123 -0.37268
-0.00144502 -0.149107 -0.473143
0.0257978 -0.0243618 -0.530676
0.0528828 0.140464 -0.536837
0.0759442 0.297474 -0.488195
0.0909191 0.404156 -0.396236
0.0997533 0.419632 -0.283637
0.101713 0.354258 -0.158494
0.102693 0.244233 -0.0254655
0.112162 0.130308 0.10102
0.131887 0.0504556 0.206691
0.160739 0.0212065 0.274333
0.194402 0.0370286 0.290344
0.227557 0.0785204 0.250061
0.255937 0.122909 0.165494
0.277042 0.155055 0.0570802
0.290007 0.169855 -0.0492663
0.294237 0.164964 -0.129752
0.288147 0.147489 -0.170865
0.270889 0.122266 -0.171308
0.239985 0.0929246 -0.138521
-0.0393975 -0.20263 -0.350033
-0.0193286 -0.146405 -0.455221
0.00751528 -0.0152492 -0.523204
0.0387805 0.154813 -0.541274
0.0703617 0.310524 -0.503066
0.0954657 0.407882 -0.418224
0.113444 0.405385 -0.304935
0.120698 0.318417 -0.170276
0.121232 0.189842 -0.0218137
0.122969 0.0655573 0.12159
0.128905 -0.0131504 0.241777
0.140477 -0.0308449 0.318283
0.156904 0.00236776 0.336227
0.176376 0.0611011 0.291566
0.19758 0.119081 0.198476
0.218725 0.15952 0.0802654
0.238535 0.177426 -0.0347412
0.254394 0.172401 -0.121386
0.261823 0.155209 -0.166687
0.257165 0.13139 -0.168984
0.234734 0.104498 -0.137231
-0.0436942 -0.20105 -0.291101
-0.0258738 -0.143036 -0.389276
-0.000883009 -0.0100705 -0.459607
0.0317542 0.159107 -0.488
0.0678706 0.307281 -0.464598
0.0989586 0.389638 -0.396196
0.122223 0.365441 -0.294054
0.131912 0.255856 -0.164036
0.130166 0.110567 -0.0158438
0.122824 -0.0199202 0.130232
0.113737 -0.0919312 0.253552
0.106479 -0.0922385 0.331917
0.103543 -0.0365275 0.349956
0.106633 0.0431765 0.304076
0.117587 0.116941 0.208976
0.135969 0.166477 0.0892803
0.160235 0.187127 -0.0260821
0.186139 0.181152 -0.112458
0.206732 0.163685 -0.158049
0.215799 0.14108 -0.160822
0.204651 0.116522 -0.130848
-0.0257931 -0.200737 -0.209491
-0.00918956 -0.144182 -0.29017
0.0134634 -0.0144723 -0.353685
0.0445064 0.148207 -0.386279
0.0805213 0.283874 -0.377207
0.112475 0.347379 -0.330189
0.136519 0.300064 -0.250259
0.146197 0.168982 -0.140917
0.141066 0.0106351 -0.0110325
0.124872 -0.120596 0.120937
0.101645 -0.179668 0.234667
0.0762827 -0.156604 0.308098
0.0537669 -0.0734299 0.325691
0.0389193 0.0308808 0.283057
0.0364846 0.12245 0.19335
0.0481166 0.181789 0.0800516
0.0722556 0.204602 -0.0292425
0.103641 0.196476 -0.110678
0.133857 0.177113 -0.153668
0.154716 0.15389 -0.15526
0.155443 0.129777 -0.125922
0.0200011 -0.20495 -0.115959
0.0383546 -0.153634 -0.170567
0.0597334 -0.0324427 -0.217871
0.087955 0.118166 -0.247109
0.12017 0.237919 -0.248678
0.148242 0.280618 -0.225288
0.168872 0.211147 -0.176934
0.17503 0.0624924 -0.103007
0.164597 -0.102811 -0.00852018
0.1392 -0.22759 0.0933938
0.102443 -0.266741 0.185857
0.0596946 -0.214568 0.248856
0.0174307 -0.0999421 0.266731
-0.0171775 0.0313844 0.232572
-0.0367902 0.141543 0.155626
-0.0375306 0.20991 0.0556332
-0.0199308 0.23331 -0.0431234
0.0106163 0.22107 -0.117377
0.0453108 0.197022 -0.15664
0.0748834 0.169905 -0.156167
0.0876224 0.143032 -0.12612
0.0893868 -0.211879 -0.0242821
0.113026 -0.168876 -0.0485361
0.135101 -0.0604534 -0.0736716
0.160299 0.07396 -0.0933351
0.186857 0.174508 -0.102111
0.208211 0.195575 -0.103241
0.222041 0.106953 -0.0923074
0.221961 -0.0530742 -0.0636437
0.204576 -0.217397 -0.0159263
0.169321 -0.32762 0.0457744
0.118843 -0.340384 0.110429
0.0583351 -0.255226 0.161392
-0.00500153 -0.10781 0.182523
-0.062206 0.0501783 0.162508
-0.103463 0.177322 0.104582
-0.122229 0.252432 0.0226046
-0.117567 0.274034 -0.063803
-0.0937933 0.255255 -0.131379
-0.0588835 0.223772 -0.168099
-0.0224898 0.189387 -0.166031
0.0031281 0.156228 -0.134342
0.169334 -0.216761 0.0497307
0.200015 -0.182938 0.0536465
0.224088 -0.0892698 0.0503692
0.246231 0.0257562 0.0408901
0.26575 0.104733 0.0257454
0.278218 0.104594 0.00117514
0.28281 0.00130686 -0.025716
0.274293 -0.162541 -0.0439147
0.2484 -0.317416 -0.0444011
0.202553 -0.405803 -0.0232612
0.138147 -0.388175 0.0152546
0.0598137 -0.269999 0.0581205
-0.024948 -0.0929547 0.0878801
-0.105793 0.0871073 0.0871945
-0.170574 0.2264 0.0519794
-0.209852 0.304119 -0.0111454
-0.220892 0.321241 -0.0876152
-0.206347 0.294137 -0.152401
-0.172756 0.253092 -0.190167
-0.129829 0.20898 -0.188585
-0.0901948 0.166642 -0.15465
0.242339 -0.213904 0.0982877
0.279315 -0.187219 0.122689
0.304849 -0.108222 0.135074
0.323047 -0.0135009 0.131616
0.334078 0.043451 0.108416
0.335785 0.0241947 0.0617757
0.328917 -0.0881292 0.000533472
0.309639 -0.247972 -0.0592165
0.273147 -0.385969 -0.100759
0.215335 -0.447748 -0.111866
0.136537 -0.399627 -0.0907552
0.0409176 -0.253259 -0.0478453
-0.0637303 -0.0548817 -0.00309112
-0.165911 0.138015 0.0191271
-0.25142 0.281153 0.00711831
-0.308174 0.355367 -0.0399915
-0.331868 0.364932 -0.111981
-0.323673 0.32848 -0.179923
-0.288812 0.277004 -0.223399
-0.23719 0.22216 -0.224706
-0.182027 0.16983 -0.187833
0.290247 -0.199044 0.119393
0.329794 -0.17565 0.153649
0.353988 -0.108549 0.171732
0.366065 -0.0320886 0.166427
0.366694 0.00503035 0.131242
0.355868 -0.0293448 0.0641896
0.335653 -0.144549 -0.0243064
0.303662 -0.293716 -0.114015
0.254938 -0.410139 -0.182082
0.184599 -0.44456 -0.210327
0.0924966 -0.370617 -0.193391
-0.0172619 -0.205797 -0.140969
-0.136396 0.00113799 -0.0764887
-0.252553 0.193961 -0.0313407
-0.350033 0.330211 -0.0238156
-0.415011 0.393888 -0.0611823
-0.44249 0.393186 -0.135951
-0.433066 0.347736 -0.213351
-0.391403 0.286978 -0.266845
-0.328004 0.222775 -0.273071
-0.25699 0.161979 -0.232557
0.302307 -0.169685 0.119707
0.338901 -0.145128 0.154026
0.357635 -0.0860475 0.167822
0.360819 -0.0243396 0.152392
0.349244 -0.0033444 0.101272
0.324737 -0.0478941 0.0164425
0.290259 -0.160026 -0.0894968
0.244851 -0.293432 -0.193721
0.183831 -0.386383 -0.270071
0.102432 -0.396323 -0.297916
0.000798275 -0.304993 -0.271826
-0.116495 -0.134737 -0.202942
-0.240527 0.0655734 -0.118494
-0.358526 0.243924 -0.055574
-0.454255 0.362106 -0.0367765
-0.513647 0.408694 -0.0734743
-0.5324 0.396014 -0.158762
-0.511944 0.343344 -0.250904
-0.457541 0.27637 -0.317292
-0.380702 0.206449 -0.329521
-0.296509 0.141152 -0.284785
0.279346 -0.127046 0.115126
0.307711 -0.0969175 0.144124
0.317519 -0.0416792 0.147601
0.310018 0.00976545 0.117757
0.285819 0.0195368 0.050239
0.248104 -0.0298383 -0.0476766
0.200329 -0.133966 -0.159806
0.143001 -0.248832 -0.262592
0.0721245 -0.319532 -0.33011
-0.0161421 -0.311099 -0.342852
-0.120599 -0.213343 -0.298833
-0.235758 -0.0519945 -0.212493
-0.352169 0.126414 -0.114351
-0.457292 0.276679 -0.0447011
-0.535626 0.367134 -0.0272353
-0.574615 0.392011 -0.0743959
-0.572265 0.367471 -0.177632
-0.532373 0.311207 -0.28807
-0.462009 0.243275 -0.368559
-0.373792 0.173652 -0.38729
-0.283525 0.109522 -0.338551
0.232144 -0.0774237 0.118324
0.249743 -0.0388724 0.142333
0.249446 0.0167279 0.135171
0.2319 0.063096 0.0907638
0.197448 0.0676123 0.00963528
0.149965 0.0189109 -0.094345
0.0929444 -0.0739544 -0.201343
0.0283645 -0.170452 -0.289154
-0.0469013 -0.22342 -0.335526
-0.135425 -0.205372 -0.325145
-0.234573 -0.113156 -0.26179
-0.337743 0.0259438 -0.163801
-0.435316 0.169833 -0.0633111
-0.515652 0.281958 -0.000485534
-0.565085 0.33883 0.00311252
-0.574006 0.340926 -0.0632252
-0.543796 0.307922 -0.187905
-0.481684 0.254327 -0.317323
-0.397389 0.193016 -0.411417
-0.304172 0.131362 -0.436158
-0.217302 0.0751424 -0.384123
0.178516 -0.02897 0.140982
0.186911 0.019148 0.165944
0.179231 0.0774621 0.153658
0.155698 0.122403 0.100783
0.116259 0.126393 0.0124346
0.0651189 0.0821328 -0.0903317
0.00574484 0.00197767 -0.18293
-0.0588423 -0.0785201 -0.246658
-0.130677 -0.119964 -0.265869
-0.21124 -0.101485 -0.231387
-0.296658 -0.0252546 -0.153845
-0.379381 0.0818494 -0.0550448
-0.450259 0.183779 0.033461
-0.499139 0.253497 0.0749772
-0.514974 0.276354 0.0530241
-0.491611 0.259566 -0.0391211
-0.434417 0.223618 -0.186537
-0.354265 0.179941 -0.333472
-0.263566 0.133869 -0.438278
-0.175587 0.0880653 -0.467557
-0.10359 0.045809 -0.41404
0.135896 0.013754 0.184994
0.139646 0.0705637 0.218978
0.12977 0.132707 0.21023
0.106215 0.178694 0.158431
0.0686732 0.18565 0.0727116
0.0211197 0.148412 -0.021579
-0.0330392 0.0804503 -0.0940501
-0.0898787 0.012492 -0.130265
-0.150636 -0.0239518 -0.123206
-0.215979 -0.0131138 -0.0703467
-0.281246 0.0395339 0.0113806
-0.338325 0.109311 0.0980957
-0.379279 0.167137 0.161141
-0.395984 0.195344 0.170014
-0.380429 0.188368 0.115318
-0.330128 0.157969 -0.0048451
-0.254096 0.124555 -0.172305
-0.16592 0.0965328 -0.33173
-0.079817 0.0720985 -0.442742
-0.00811125 0.0487011 -0.475093
0.0388414 0.0246095 -0.422415
0.107089 0.0469268 0.230357
0.110788 0.110064 0.27559
0.103559 0.175419 0.276121
0.0854091 0.223278 0.235179
0.0560001 0.235007 0.162156
0.0178545 0.205917 0.0836504
-0.0258058 0.149064 0.0329196
-0.0698858 0.0900691 0.0207831
-0.115166 0.0535372 0.0470677
-0.161842 0.0515081 0.107975
-0.20503 0.0771666 0.183147
-0.236798 0.109456 0.24886
-0.251085 0.126511 0.281043
-0.242177 0.119026 0.256805
-0.205101 0.0891586 0.172943
-0.139703 0.051793 0.0323802
-0.0574316 0.0259505 -0.144217
0.0271159 0.0171594 -0.305922
0.0990525 0.0172279 -0.416336
0.148147 0.0188035 -0.450218
0.16717 0.0142628 -0.402093
0.0884429 0.0661404 0.260603
0.0956487 0.131383 0.315764
0.0948167 0.197545 0.32717
0.08625 0.247232 0.29908
0.0686782 0.26457 0.244215
0.0439187 0.244144 0.1847
0.0148402 0.197023 0.154168
-0.0139879 0.144158 0.15947
-0.0418604 0.104443 0.195824
-0.0689034 0.0876578 0.254994
-0.0907919 0.0874465 0.316019
-0.100679 0.0872405 0.35765
-0.0948929 0.0718679 0.36146
-0.0702753 0.0385613 0.311902
-0.0241028 -0.00530712 0.210322
0.0415181 -0.0428869 0.0636282
0.115407 -0.0577632 -0.107867
0.184201 -0.0473258 -0.260674
0.234569 -0.0241498 -0.363969
0.259052 0.000422507 -0.396907
0.253281 0.0139607 -0.356001
0.0755108 0.071207 0.259039
0.0869468 0.13338 0.317665
0.0935248 0.196837 0.336816
0.0948727 0.246344 0.321272
0.0893957 0.267896 0.283259
0.0782975 0.255136 0.242528
0.0636804 0.216508 0.228171
0.0495865 0.168278 0.243693
0.0372374 0.125276 0.28158
0.0267906 0.0958389 0.332458
0.0214441 0.0751745 0.376827
0.0263373 0.0514069 0.397559
0.0428164 0.014992 0.381993
0.0723801 -0.0324701 0.320503
0.11507 -0.0807154 0.217466
0.168272 -0.113308 0.0811953
0.223225 -0.116374 -0.0705798
0.269879 -0.0899334 -0.204117
0.297799 -0.0489215 -0.293584
0.302132 -0.00746967 -0.322912
0.280734 0.019248 -0.290827
0.059371 0.066657 0.221934
0.0733406 0.121124 0.273973
0.0849025 0.178253 0.294831
0.0933376 0.224168 0.288259
0.0966514 0.246714 0.264357
0.0962116 0.239213 0.239637
0.0934643 0.207531 0.235921
0.0914811 0.164172 0.253893
0.0907415 0.120452 0.286395
0.0915363 0.083621 0.325072
0.0960899 0.0508991 0.353943
0.107448 0.0146445 0.360801
0.125864 -0.0304819 0.33795
0.150763 -0.0808983 0.279889
0.181521 -0.125291 0.191803
0.215997 -0.149508 0.0809206
0.24853 -0.143392 -0.0389858
0.273053 -0.108291 -0.144083
0.282788 -0.0583558 -0.214057
0.275395 -0.00887032 -0.237681
0.249891 0.0242839 -0.214572
0.0256858 -0.12973 -0.247401
0.0487449 -0.0882652 -0.298855
0.0656517 0.0039208 -0.318759
0.0710072 0.125674 -0.305175
0.0630406 0.248112 -0.264882
0.0439655 0.338843 -0.208289
0.0217681 0.36711 -0.151714
0.00292268 0.336324 -0.0992304
-0.00210435 0.268178 -0.0495677
0.0163171 0.188558 -0.00503857
0.0572073 0.122013 0.0327562
0.114151 0.0817855 0.0577674
0.176265 0.0683038 0.0632143
0.231579 0.0736165 0.0450788
0.270841 0.0846725 0.00797997
0.28883 0.0924251 -0.0382253
0.286055 0.0945963 -0.0820578
0.266164 0.088784 -0.111038
0.234456 0.0753897 -0.117142
0.197063 0.0576523 -0.101833
0.157277 0.0370987 -0.0710456
0.0209379 -0.166454 -0.333608
0.047589 -0.120586 -0.406679
0.070309 -0.0132907 -0.437132
0.0825475 0.128758 -0.422698
0.0823563 0.269202 -0.369638
0.070661 0.371222 -0.288656
0.0549584 0.398708 -0.203119
0.0409278 0.35769 -0.120069
0.0389463 0.275702 -0.0412562
0.0599461 0.184326 0.0284212
0.103407 0.112516 0.0843318
0.163445 0.0743466 0.118137
0.229031 0.0678762 0.122017
0.288099 0.0812629 0.0928076
0.331198 0.0982962 0.0385661
0.35257 0.108683 -0.0269731
0.352194 0.110689 -0.0878762
0.333151 0.102988 -0.12834
0.300002 0.0876314 -0.139189
0.258351 0.0681543 -0.122267
0.211517 0.0461547 -0.0853513
0.0136555 -0.198221 -0.393517
0.042275 -0.149679 -0.486792
0.070365 -0.0307693 -0.531163
0.0912121 0.126816 -0.521764
0.102084 0.279874 -0.461726
0.101757 0.38826 -0.361546
0.0964279 0.411055 -0.248522
0.0883751 0.357591 -0.133546
0.0870253 0.261606 -0.0220264
0.10393 0.16017 0.0763523
0.139979 0.0862223 0.152418
0.191561 0.0538187 0.19495
0.249867 0.0576506 0.195537
0.304444 0.0810979 0.152925
0.347116 0.104953 0.0791786
0.372177 0.118213 -0.00661687
0.378438 0.119821 -0.0846216
0.367045 0.109953 -0.136423
0.340285 0.0931368 -0.152133
0.30182 0.0734084 -0.134695
0.253898 0.0522735 -0.0941981
0.00749973 -0.223202 -0.416374
0.0379429 -0.173188 -0.524434
0.0709355 -0.046572 -0.582913
0.100404 0.121005 -0.58278
0.122285 0.279987 -0.521432
0.132817 0.387915 -0.410532
0.135473 0.400871 -0.277486
0.130068 0.332425 -0.136037
0.124416 0.22283 0.00516305
0.130396 0.114211 0.129814
0.151004 0.0426894 0.224023
0.185869 0.0210749 0.273481
0.229644 0.0394282 0.269443
0.274745 0.075389 0.212955
0.314841 0.106936 0.120396
0.344453 0.122584 0.0158398
0.360866 0.122596 -0.076773
0.362488 0.109503 -0.137852
0.3484 0.0917973 -0.157692
0.319708 0.0737987 -0.140182
0.276434 0.0565418 -0.0977761
0.00565989 -0.240744 -0.394967
0.0379228 -0.190645 -0.509379
0.0739789 -0.0600444 -0.579285
0.109542 0.11215 -0.590115
0.139563 0.270805 -0.535416
0.157069 0.371906 -0.42613
0.163092 0.369875 -0.286017
0.155302 0.283834 -0.128948
0.140529 0.160765 0.0321624
0.130527 0.047469 0.175204
0.130658 -0.0174343 0.282024
0.14405 -0.0234411 0.335408
0.169238 0.0137625 0.326383
0.201955 0.0652333 0.258081
0.23822 0.106128 0.150429
0.272224 0.124528 0.031555
0.300041 0.122245 -0.0716213
0.317313 0.105284 -0.138635
0.319753 0.0869703 -0.161329
0.305517 0.0719788 -0.143598
0.271686 0.0603671 -0.100178
0.012133 -0.254433 -0.334839
0.0451124 -0.205348 -0.442923
0.0815649 -0.0737468 -0.515525
0.119348 0.0986961 -0.535586
0.152526 0.252192 -0.492652
0.172031 0.341452 -0.395707
0.176799 0.320647 -0.262059
0.163173 0.215177 -0.105254
0.137008 0.0790201 0.058642
0.109287 -0.0366659 0.205004
0.0873728 -0.0913371 0.312912
0.0773995 -0.0776092 0.363609
0.081578 -0.0176636 0.348368
0.0990542 0.0524952 0.271815
0.128392 0.105085 0.155587
0.164323 0.127756 0.0300331
0.201819 0.12395 -0.0766845
0.234083 0.103386 -0.144539
0.253969 0.0848085 -0.167217
0.256767 0.0732429 -0.148466
0.236521 0.0670736 -0.104561
0.0354182 -0.266819 -0.251183
0.068604 -0.219819 -0.340938
0.103593 -0.089998 -0.405531