# vtk DataFile Version 2.0
Func
ASCII
DATASET RECTILINEAR_GRID
DIMENSIONS 21 21 21
X_COORDINATES 21 double
-4.7619
-4.28571
-3.80952
-3.33333
-2.85714
-2.38095
-1.90476
-1.42857
-0.952381
-0.47619
0
0.47619
0.952381
1.42857
1.90476
2.38095
2.85714
3.33333
3.80952
4.28571
4.7619
Y_COORDINATES 21 double
-4.7619
-4.28571
-3.80952
-3.33333
-2.85714
-2.38095
-1.90476
-1.42857
-0.952381
-0.47619
0
0.47619
0.952381
1.42857
1.90476
2.38095
2.85714
3.33333
3.80952
4.28571
4.7619
Z_COORDINATES 21 double
-4.7619
-4.28571
-3.80952
-3.33333
-2.85714
-2.38095
-1.90476
-1.42857
-0.952381
-0.47619
0
0.47619
0.952381
1.42857
1.90476
2.38095
2.85714
3.33333
3.80952
4.28571
4.7619
POINT_DATA 9261
SCALARS data double 3
LOOKUP_TABLE default
-0.13078 0.0961227 0.0697904
-0.137748 0.0752003 0.035233
-0.122598 0.0213055 -0.0265233
-0.087571 -0.0517323 -0.0913376
-0.0373569 -0.124267 -0.129192
0.0236949 -0.164749 -0.10589
0.0825579 -0.161348 -0.0155109
0.130481 -0.122309 0.114512
0.156781 -0.0661974 0.241077
0.159015 -0.0103867 0.325844
0.142204 0.0315677 0.342056
0.115893 0.0575964 0.290156
0.0910847 0.072658 0.193008
0.0761666 0.0823105 0.0835069
0.0748021 0.0883671 -0.00842607
0.0843626 0.0894206 -0.0634754
0.0984408 0.0810412 -0.0792821
0.109327 0.0630925 -0.0676125
0.111673 0.0385636 -0.0424285
0.104466 0.0138135 -0.0162589
0.0860987 -0.00430411 0.00328698
-0.126466 0.11467 0.126092
-0.132805 0.0905381 0.0903574
-0.115553 0.0287972 0.017632
-0.0762032 -0.0546401 -0.0619598
-0.0203162 -0.137047 -0.111015
0.046395 -0.184787 -0.0896248
0.108883 -0.185454 0.0127049
0.157848 -0.147426 0.162014
0.181836 -0.090063 0.304527
0.178099 -0.0309308 0.394542
0.153675 0.0156246 0.401115
0.120012 0.0478447 0.32685
0.0899637 0.0704319 0.201501
0.0733722 0.0875097 0.0658182
0.0738055 0.098903 -0.0437669
0.0878514 0.101057 -0.104923
0.107015 0.0885415 -0.117249
0.121687 0.063111 -0.097104
0.12515 0.031563 -0.0615088
0.116474 0.00199665 -0.0253479
0.095388 -0.0171174 0.00184916
-0.0918919 0.119303 0.196721
-0.0962454 0.0924691 0.164351
-0.0804215 0.0268877 0.0850875
-0.0445991 -0.0606502 -0.00601886
0.00611503 -0.145738 -0.066685
0.0656556 -0.195339 -0.0551583
0.120145 -0.197701 0.0442959
0.161608 -0.161694 0.194116
0.179416 -0.106398 0.334217
0.170612 -0.0481689 0.415329
0.14245 -0.000382384 0.405911
0.106792 0.0361845 0.311738
0.0765561 0.0658465 0.167828
0.0613103 0.0906112 0.0192334
0.064264 0.107704 -0.0946071
0.0815446 0.110884 -0.152072
0.103477 0.0937249 -0.156348
0.119694 0.05994 -0.127283
0.123037 0.0205504 -0.0829647
0.113143 -0.0143076 -0.0386749
0.0913446 -0.0341492 -0.00433364
-0.0362795 0.108979 0.263617
-0.0388727 0.079667 0.236304
-0.0279038 0.0142418 0.153112
-0.00273951 -0.0706653 0.0528605
0.0332252 -0.150063 -0.0193781
0.0754256 -0.194632 -0.0223671
0.112773 -0.194778 0.0640327
0.140531 -0.159736 0.200625
0.150267 -0.107688 0.324929
0.138182 -0.0528982 0.387658
0.111148 -0.00671709 0.359928
0.079967 0.0316308 0.251616
0.0557794 0.0662422 0.101267
0.0464843 0.0969592 -0.0454292
0.0539 0.118614 -0.150017
0.0739375 0.121965 -0.195128
0.0965602 0.099575 -0.189232
0.11171 0.0570069 -0.153614
0.113094 0.00945001 -0.10562
0.10144 -0.0309887 -0.0577953
0.0795103 -0.0517324 -0.018827
0.025311 0.0840004 0.302439
0.022695 0.0531306 0.277841
0.0251288 -0.00780767 0.19236
0.0335425 -0.0835139 0.0864917
0.04745 -0.149461 0.00665265
0.0649537 -0.181752 -0.0088706
0.0801281 -0.174611 0.0611334
0.0921481 -0.138069 0.17763
0.095105 -0.0889762 0.27949
0.0847976 -0.0393984 0.320671
0.0667155 0.00205076 0.277766
0.0488963 0.0382989 0.165192
0.038776 0.0738882 0.0227174
0.0410157 0.107198 -0.107274
0.0555379 0.131471 -0.19133
0.0780205 0.134482 -0.219535
0.0990448 0.10783 -0.206188
0.109999 0.0580435 -0.171078
0.106798 0.00333188 -0.127878
0.0916654 -0.0425248 -0.0841813
0.0685946 -0.0650217 -0.044611
0.068653 0.0468185 0.286362
0.065139 0.0161252 0.258426
0.0592281 -0.0354418 0.173372
0.0518249 -0.0953459 0.0707948
0.0444488 -0.140939 -0.00526292
0.0383756 -0.155324 -0.0227225
0.0326996 -0.137237 0.0358351
0.0303176 -0.0978517 0.132735
0.0286893 -0.0522871 0.212124
0.0240638 -0.0100691 0.234319
0.0201947 0.0235556 0.183939
0.0215738 0.0541203 0.0797359
0.0309653 0.0871904 -0.040068
0.0488639 0.120448 -0.140431
0.0728807 0.146134 -0.196648
0.0986253 0.14968 -0.208456
0.117607 0.121321 -0.195428
0.123016 0.0674531 -0.172031
0.113651 0.00763367 -0.145901
0.0934594 -0.0431258 -0.116089
0.0675174 -0.0686299 -0.0814281
0.0756607 0.00680239 0.208302
0.0710457 -0.0213818 0.167291
0.0597505 -0.0599189 0.0815764
0.0420438 -0.100262 -0.0112567
0.0204447 -0.122781 -0.0707726
-0.00134499 -0.117285 -0.0729002
-0.0204698 -0.0870325 -0.00897163
-0.0310733 -0.044503 0.0833499
-0.0323989 -0.00363195 0.153687
-0.0270504 0.0288535 0.168963
-0.0129698 0.0513498 0.121888
0.010723 0.0723779 0.0351054
0.0420736 0.0992963 -0.0557302
0.0773305 0.130233 -0.123967
0.111894 0.157072 -0.154661
0.141363 0.163847 -0.157049
0.158271 0.138892 -0.154532
0.157545 0.0866524 -0.15384
0.140958 0.0259466 -0.155287
0.114106 -0.0279358 -0.148033
0.0828997 -0.0576937 -0.123645
0.0443385 -0.0278205 0.0838092
0.0386399 -0.051274 0.0230727
0.0261784 -0.0752234 -0.0631127
0.00569225 -0.0952077 -0.140217
-0.0206354 -0.0953876 -0.172864
-0.0476638 -0.0709433 -0.144577
-0.0704343 -0.0291106 -0.0593242
-0.0812553 0.0154346 0.0436708
-0.0770439 0.0501726 0.118919
-0.0587686 0.0707771 0.139416
-0.0259276 0.0791631 0.105129
0.019147 0.0870428 0.0419121
0.0705694 0.1044 -0.017567
0.121072 0.131169 -0.0549443
0.164414 0.159751 -0.0649021
0.196349 0.173282 -0.0650849
0.210535 0.158071 -0.0811138
0.203385 0.114838 -0.111048
0.179258 0.058791 -0.147573
0.145184 0.00463823 -0.169531
0.107597 -0.0301806 -0.160978
-0.0144968 -0.0472206 -0.0569117
-0.0209289 -0.0639368 -0.136829
-0.0306296 -0.0744521 -0.220574
-0.046866 -0.0773337 -0.277466
-0.0689877 -0.0599595 -0.277306
-0.0916702 -0.0212997 -0.210971
-0.109447 0.0281484 -0.0964582
-0.114282 0.0719964 0.0248777
-0.101586 0.098687 0.112116
-0.0705273 0.105669 0.143873
-0.0218468 0.0978962 0.126522
0.0397231 0.0902619 0.0884486
0.105595 0.0960238 0.0592425
0.166093 0.118165 0.0496837
0.214075 0.150286 0.0562742
0.24576 0.175213 0.0543376
0.25599 0.176594 0.0172043
0.242575 0.14993 -0.0453302
0.211848 0.104846 -0.118726
0.171882 0.0541447 -0.172444
0.129212 0.0139664 -0.183523
-0.0847635 -0.0478176 -0.179831
-0.0918824 -0.0564207 -0.272527
-0.0963347 -0.0558141 -0.348742
-0.103578 -0.0460739 -0.382161
-0.115028 -0.0177405 -0.348445
-0.12647 0.0281733 -0.245703
-0.133372 0.0791561 -0.104001
-0.128581 0.117843 0.0337075
-0.106927 0.133582 0.131045
-0.066136 0.125356 0.172081
-0.00776747 0.100712 0.168733
0.0621286 0.0774019 0.151261
0.133829 0.0719672 0.146513
0.196709 0.090865 0.159084
0.243552 0.129047 0.178292
0.271389 0.169349 0.174268
0.276295 0.192552 0.120044
0.257428 0.188095 0.0306506
0.22228 0.158842 -0.0735396
0.179514 0.11476 -0.155049
0.135151 0.0696255 -0.185698
-0.146642 -0.0333931 -0.25443
-0.154202 -0.0346271 -0.348335
-0.152975 -0.0265709 -0.411219
-0.15012 -0.00946028 -0.421521
-0.148958 0.0235782 -0.360959
-0.147278 0.0709033 -0.234052
-0.142233 0.118979 -0.0782531
-0.128236 0.150207 0.0636046
-0.100267 0.154534 0.159975
-0.0553366 0.131956 0.200444
0.00455822 0.0919525 0.20173
0.0730713 0.054551 0.195489
0.140805 0.039233 0.206489
0.1976 0.055941 0.23491
0.23695 0.101069 0.264892
0.257064 0.157779 0.263101
0.255375 0.204264 0.202363
0.232475 0.223888 0.0991768
0.196223 0.212594 -0.0225038
0.155331 0.176978 -0.121818
0.114831 0.127928 -0.167827
-0.185504 -0.0127189 -0.266734
-0.193374 -0.00936019 -0.348634
-0.187906 0.00174782 -0.39304
-0.177177 0.0215781 -0.383371
-0.165743 0.0552885 -0.307284
-0.153767 0.101406 -0.174512
-0.140153 0.145827 -0.0239864
-0.12101 0.171049 0.10396
-0.0919076 0.166912 0.183116
-0.0499283 0.133585 0.208806
0.00286822 0.0817065 0.201876
0.0607233 0.0329001 0.194939
0.115736 0.00907375 0.21141
0.159362 0.0233725 0.248933
0.186399 0.0737394 0.288617
0.196455 0.144053 0.295289
0.188317 0.210661 0.241428
0.16399 0.251661 0.141227
0.130955 0.256975 0.0194872
0.0973749 0.229834 -0.0835266
0.0668751 0.178339 -0.136884
-0.194449 0.00393147 -0.222251
-0.20236 0.00800378 -0.28135
-0.195044 0.0181846 -0.304284
-0.180701 0.0378403 -0.279388
-0.164278 0.0712471 -0.199708
-0.148145 0.117136 -0.078803
-0.132508 0.160718 0.048203
-0.114859 0.184556 0.145581
-0.0914467 0.177552 0.192704
-0.0599255 0.13912 0.190487
-0.0219523 0.080295 0.163018
0.0180291 0.0235154 0.143397
0.0543864 -0.00759349 0.154419
0.0809174 0.00272652 0.193152
0.0940233 0.0540902 0.239959
0.0945886 0.131621 0.259564
0.0824844 0.211009 0.224152
0.0607978 0.266667 0.14281
0.035935 0.284198 0.0383954
0.0148591 0.263963 -0.0532099
-0.000515969 0.211757 -0.103754
-0.174184 0.0080118 -0.141433
-0.181654 0.00813076 -0.171957
-0.175243 0.0148332 -0.173013
-0.162424 0.0334962 -0.137504
-0.147756 0.068379 -0.0628578
-0.135125 0.117944 0.035031
-0.125311 0.166114 0.12802
-0.116635 0.195146 0.186082
-0.10587 0.192294 0.193748
-0.0912721 0.155394 0.156544
-0.0735642 0.0952164 0.100509
-0.0553095 0.0342468 0.0586288
-0.0395242 -0.00301078 0.0537369
-0.0298359 0.00100405 0.0842869
-0.0282872 0.0476406 0.132262
-0.0332319 0.123814 0.164232
-0.044318 0.206006 0.15274
-0.0580945 0.267044 0.100625
-0.0698865 0.290304 0.0263811
-0.0745696 0.274052 -0.0414193
-0.0721992 0.222972 -0.0793478
-0.132864 -0.00562714 -0.0503668
-0.139654 -0.0133593 -0.0524768
-0.136214 -0.0114521 -0.0344406
-0.129327 0.00781762 0.00726474
-0.122687 0.0481945 0.0720726
-0.120317 0.107094 0.143363
-0.122623 0.166191 0.201053
-0.128463 0.207045 0.221003
-0.13484 0.214879 0.191859
-0.140302 0.185474 0.121974
-0.14428 0.128979 0.0374096
-0.147253 0.0672972 -0.0300252
-0.149763 0.0249775 -0.0573273
-0.153112 0.0203988 -0.0432155
-0.158085 0.0565218 -0.0019977
-0.162909 0.122437 0.0368436
-0.167569 0.196773 0.0475685
-0.168981 0.25313 0.0272051
-0.164564 0.274719 -0.0115778
-0.151562 0.259191 -0.049063
-0.132007 0.210931 -0.0681997
-0.0813358 -0.0348017 0.0268564
-0.0877248 -0.052564 0.0472369
-0.0890593 -0.0552715 0.0797119
-0.0910482 -0.0332933 0.124712
-0.0960092 0.0163087 0.18011
-0.10762 0.0888334 0.230143
-0.125554 0.16331 0.261472
-0.148089 0.219932 0.25487
-0.172738 0.242316 0.201431
-0.197853 0.224197 0.109812
-0.22134 0.175014 0.00390817
-0.241642 0.115578 -0.086837
-0.257278 0.0696734 -0.139373
-0.267778 0.0554573 -0.14857
-0.273159 0.0771218 -0.123333
-0.272406 0.126074 -0.0872847
-0.266196 0.184195 -0.0627845
-0.252635 0.227699 -0.0567817
-0.231382 0.24162 -0.0629773
-0.202138 0.224294 -0.0707436
-0.168725 0.180123 -0.0693493
-0.0306545 -0.0737082 0.0740842
-0.0365325 -0.101476 0.108234
-0.0429508 -0.107103 0.14955
-0.0540765 -0.080482 0.19672
-0.0712817 -0.0193271 0.246967
-0.0969033 0.068559 0.286709
-0.130126 0.159777 0.306569
-0.168541 0.233118 0.290567
-0.209527 0.27089 0.230462
-0.251045 0.265346 0.132731
-0.28947 0.225291 0.0171519
-0.321469 0.170125 -0.0903015
-0.344089 0.122187 -0.166907
-0.355754 0.0985345 -0.203317
-0.356321 0.10411 -0.202052
-0.345914 0.132601 -0.179455
-0.326273 0.169515 -0.152894
-0.297462 0.195179 -0.130915
-0.261403 0.197981 -0.113357
-0.219935 0.177293 -0.0972524
-0.177846 0.138175 -0.0780621
0.0101192 -0.113216 0.0901305
0.00436165 -0.148451 0.129281
-0.00680949 -0.154711 0.173498
-0.0258265 -0.122364 0.220771
-0.0529751 -0.0502956 0.268667
-0.088985 0.05098 0.305894
-0.132275 0.156007 0.325133
-0.180432 0.242889 0.312741
-0.230796 0.293375 0.260383
-0.28116 0.298981 0.17126
-0.326897 0.26799 0.0599421
-0.363497 0.218125 -0.052101
-0.387169 0.169737 -0.143693
-0.395784 0.138152 -0.202448
-0.38934 0.128624 -0.225379
-0.369184 0.136805 -0.221505
-0.338062 0.151915 -0.202324
-0.298121 0.159227 -0.1759
-0.252814 0.150589 -0.146493
-0.20569 0.126937 -0.116347
-0.161472 0.0935272 -0.0858091
0.0376787 -0.144431 0.0841165
0.0306564 -0.182821 0.122201
0.0148241 -0.187483 0.164733
-0.0103692 -0.150101 0.209892
-0.0441243 -0.0707134 0.254969
-0.0850764 0.0381166 0.292524
-0.131488 0.150288 0.315865
-0.180806 0.244018 0.313342
-0.231164 0.301947 0.276818
-0.280789 0.315584 0.206067
-0.325094 0.292725 0.110204
-0.359329 0.249127 0.00546112
-0.379551 0.202637 -0.0898612
-0.38345 0.166321 -0.16212
-0.371042 0.145236 -0.204235
-0.344418 0.136471 -0.218508
-0.307089 0.132744 -0.210797
-0.262572 0.124141 -0.187602
-0.215298 0.106009 -0.155812
-0.169475 0.08066 -0.120688
-0.128967 0.0529727 -0.0859524
0.0509861 -0.160399 0.0655689
0.0420595 -0.197356 0.0980867
0.0229625 -0.19909 0.134931
-0.00535629 -0.158896 0.174103
-0.040762 -0.077908 0.214047
-0.0804001 0.0305498 0.250305
-0.122356 0.141167 0.277075
-0.16486 0.233599 0.284919
-0.207436 0.29253 0.266315
-0.248795 0.310086 0.21829
-0.285366 0.293517 0.145176
-0.312877 0.256395 0.0578756
-0.327698 0.213775 -0.0292167
-0.327547 0.176283 -0.103132
-0.312344 0.148446 -0.154617
-0.284366 0.128339 -0.181064
-0.247357 0.111437 -0.184173
-0.205412 0.0921215 -0.168293
-0.162903 0.0684026 -0.140501
-0.123936 0.0433592 -0.107744
-0.0910912 0.0212871 -0.0755459
0.0502839 -0.156919 0.0448226
0.039285 -0.188534 0.0703102
0.0189177 -0.187494 0.0987897
-0.00868977 -0.148449 0.129015
-0.0405259 -0.0731503 0.160053
-0.0733129 0.0257118 0.19016
-0.105528 0.125393 0.214978
-0.136076 0.208236 0.228055
-0.165561 0.261689 0.223002
-0.193789 0.279617 0.195773
-0.218402 0.268111 0.147319
-0.23642 0.23815 0.0837626
-0.245064 0.201629 0.0149961
-0.242366 0.166772 -0.0484927
-0.228171 0.137105 -0.0973857
-0.20432 0.111443 -0.127178
-0.173873 0.0873685 -0.136513
-0.140505 0.0626935 -0.127946
-0.107987 0.0372804 -0.107518
-0.0794823 0.0145146 -0.0816354
-0.0562124 -0.00223906 -0.0563963
-0.149582 0.145466 0.0720033
-0.161936 0.124501 0.0234122
-0.15129 0.0600427 -0.0565836
-0.118197 -0.0318957 -0.137555
-0.0670518 -0.126649 -0.18196
-0.00198417 -0.186867 -0.151351
0.0631363 -0.193063 -0.0402821
0.118986 -0.152925 0.118178
0.153391 -0.0875671 0.272408
0.162061 -0.0174029 0.376668
0.149411 0.0400098 0.398451
0.124394 0.0797646 0.338413
0.0982318 0.105205 0.224066
0.0804316 0.121065 0.0951557
0.0759564 0.129048 -0.0123215
0.0830374 0.128587 -0.074852
0.0954928 0.115252 -0.0897381
0.105275 0.0904586 -0.0713966
0.106796 0.0585215 -0.0370975
0.0991606 0.0271411 -0.00273567
0.0809962 0.00404962 0.0209615
-0.14119 0.18171 0.141236
-0.151933 0.15832 0.0901355
-0.138554 0.0834608 -0.00554357
-0.101369 -0.0233646 -0.10704
-0.0461827 -0.132768 -0.167014
0.0223819 -0.204112 -0.139717
0.0889073 -0.215989 -0.0141858
0.14401 -0.176444 0.168454
0.174792 -0.108259 0.343675
0.176681 -0.0329811 0.45655
0.15595 0.0300989 0.469271
0.12288 0.0760818 0.385014
0.0901971 0.108259 0.239586
0.0690323 0.130323 0.082077
0.0644986 0.142373 -0.0438648
0.0743707 0.141875 -0.111519
0.0905446 0.123381 -0.120871
0.103259 0.0904732 -0.0921066
0.105709 0.0513728 -0.0461572
0.097103 0.0152979 -0.00158487
0.0775774 -0.0086792 0.0285582
-0.0962805 0.204563 0.229051
-0.103184 0.179977 0.183293
-0.0903638 0.0996849 0.0793225
-0.0574499 -0.0147397 -0.0375138
-0.0100366 -0.130952 -0.113598
0.0476464 -0.207552 -0.100025
0.101897 -0.222445 0.0208329
0.145547 -0.18462 0.203648
0.166897 -0.117609 0.376283
0.161505 -0.0426516 0.479654
0.135452 0.0210779 0.475283
0.099111 0.0695483 0.37011
0.0649121 0.106145 0.206102
0.0434646 0.133176 0.0370599
0.0396138 0.148669 -0.090427
0.0508285 0.147712 -0.151097
0.0680632 0.123759 -0.149882
0.0810974 0.0823963 -0.11123
0.0830725 0.0358771 -0.0571081
0.0740017 -0.00474027 -0.00597959
0.0557439 -0.0287049 0.0290395
-0.0270127 0.209632 0.314346
-0.0302019 0.184672 0.277437
-0.0218105 0.104353 0.170068
-0.00125623 -0.00898922 0.0420156
0.0274793 -0.121681 -0.0497939
0.0626825 -0.194977 -0.0561392
0.0943123 -0.208267 0.0465824
0.119245 -0.171182 0.211493
0.128937 -0.107528 0.363652
0.118108 -0.0370629 0.444695
0.0920875 0.0224913 0.4196
0.05983 0.0688586 0.300196
0.0314541 0.105992 0.13235
0.0154361 0.135028 -0.0300986
0.0148772 0.152311 -0.142764
0.0271481 0.149932 -0.186291
0.0431618 0.120318 -0.172483
0.0534268 0.0706522 -0.127415
0.052586 0.0169549 -0.0718119
0.042119 -0.0280361 -0.0199364
0.0254278 -0.0516525 0.0172368
0.048124 0.194702 0.367119
0.0458375 0.170914 0.337235
0.0449807 0.0965271 0.230129
0.0458149 -0.00693927 0.0967985
0.0476475 -0.105894 -0.00514898
0.0523156 -0.166777 -0.029056
0.0559768 -0.172504 0.0507534
0.0606443 -0.134155 0.187891
0.0606295 -0.0748024 0.309697
0.0504684 -0.0123267 0.362783
0.033735 0.0381391 0.31917
0.016226 0.0770272 0.196164
0.00368305 0.109755 0.040698
0.000662343 0.137101 -0.0981645
0.0077801 0.154483 -0.183109
0.0218874 0.150769 -0.204658
0.0348546 0.117217 -0.182029
0.0391204 0.0614732 -0.139197
0.0321727 0.00190051 -0.0918833
0.0176319 -0.0472658 -0.0476332
0.000300083 -0.0714497 -0.0117938
0.101309 0.161066 0.356432
0.0978337 0.140075 0.326518
0.0867604 0.0773715 0.223067
0.0679566 -0.0079877 0.095247
0.0433024 -0.0845405 -0.00321823
0.0186596 -0.125636 -0.0323971
-0.00377367 -0.119003 0.0295745
-0.0173832 -0.077708 0.13846
-0.0239557 -0.0235522 0.228629
-0.0282097 0.0280341 0.255247
-0.0286226 0.0654687 0.20052
-0.0233542 0.0926416 0.0871657
-0.0121257 0.117226 -0.0399148
0.00458505 0.140507 -0.141049
0.0242048 0.157528 -0.190186
0.0430446 0.154366 -0.190342
0.0539221 0.120533 -0.167609
0.0513313 0.0626017 -0.139332
0.0362687 -0.000557465 -0.113525
0.0148152 -0.0536178 -0.0869378
-0.00668006 -0.0800964 -0.0572954
0.109242 0.117901 0.272177
0.103006 0.101301 0.229495
0.0837081 0.0544274 0.127721
0.050821 -0.00814171 0.012619
0.00785686 -0.0582826 -0.0671403
-0.0364722 -0.076191 -0.0809339
-0.0754985 -0.0549543 -0.0167354
-0.0992216 -0.00962547 0.0816855
-0.105356 0.0384161 0.155778
-0.0972704 0.0767901 0.169346
-0.0753135 0.0980129 0.114847
-0.0416772 0.110023 0.0200899
-0.00165454 0.123601 -0.0729452
0.0390804 0.141654 -0.134868
0.0746477 0.159269 -0.151722
0.100741 0.160714 -0.138672
0.110853 0.132843 -0.126992
0.101326 0.0790634 -0.124776
0.0765197 0.0165161 -0.130994
0.0450108 -0.0392859 -0.130413
0.0147607 -0.0702444 -0.111487
0.069284 0.0737593 0.131998
0.059216 0.0624329 0.0671887
0.0356797 0.0324167 -0.0340375
-0.00292831 -0.00631748 -0.130167
-0.0526279 -0.0301978 -0.179013
-0.103417 -0.0247911 -0.159095
-0.146386 0.0117831 -0.0730067
-0.169477 0.0610631 0.0337947
-0.16762 0.102516 0.108955
-0.142386 0.126447 0.123867
-0.0957162 0.129553 0.0801168
-0.0333949 0.124141 0.00993564
0.0346315 0.124945 -0.0478326
0.0983685 0.137731 -0.0735907
0.149238 0.158293 -0.0648648
0.182423 0.169326 -0.0473755
0.192017 0.154876 -0.0556072
0.175709 0.113058 -0.0875281
0.140604 0.056386 -0.13293
0.0974576 -0.000273709 -0.164546
0.0557899 -0.0378736 -0.161509
-0.00604182 0.0398788 -0.0288807
-0.0199351 0.0341428 -0.116711
-0.0430482 0.0188539 -0.215308
-0.078435 0.000258545 -0.288145
-0.123168 -0.00163841 -0.299228
-0.167648 0.023279 -0.23606
-0.202737 0.0721016 -0.117776
-0.216426 0.123557 0.00777529
-0.201925 0.157626 0.0938195
-0.158902 0.166682 0.11835
-0.0904604 0.151288 0.0908365
-0.00500733 0.128123 0.0470381
0.0844239 0.116368 0.0226179
0.164934 0.125623 0.0284394
0.226266 0.152777 0.0568515
0.263512 0.179375 0.0735532
0.271365 0.185782 0.0424241
0.248691 0.163388 -0.0254438
0.204452 0.118303 -0.111376
0.150983 0.0635398 -0.177447
0.098877 0.0175973 -0.194229
-0.0969943 0.0222382 -0.170564
-0.114065 0.0217938 -0.275115
-0.132909 0.01742 -0.366408
-0.158109 0.0135743 -0.413155
-0.188667 0.0267647 -0.386018
-0.217048 0.0643624 -0.281251
-0.235846 0.119735 -0.132176
-0.234785 0.169619 0.0115795
-0.206603 0.194574 0.108528
-0.149497 0.18874 0.142599
-0.0671634 0.156162 0.129792
0.0307148 0.117456 0.108303
0.130071 0.0959902 0.110879
0.21698 0.105255 0.141366
0.280767 0.143123 0.184165
0.317002 0.190184 0.198942
0.321141 0.222879 0.149115
0.293164 0.225156 0.0516572
0.242875 0.195872 -0.0680841
0.183385 0.145317 -0.164424
0.125444 0.0902495 -0.201639
-0.179831 0.0186227 -0.256541
-0.198763 0.0212853 -0.364718
-0.211209 0.0229091 -0.442798
-0.222944 0.0276677 -0.464869
-0.235117 0.0492538 -0.408131
-0.243363 0.0935331 -0.276191
-0.243155 0.151008 -0.110859
-0.226968 0.19735 0.0384883
-0.188151 0.213602 0.135702
-0.124234 0.195069 0.170312
-0.0390462 0.14863 0.1636
0.0577903 0.0980646 0.155244
0.153168 0.0702441 0.17564
0.234011 0.0821622 0.223687
0.290536 0.132545 0.278315
0.319453 0.201306 0.295508
0.317389 0.26133 0.238613
0.285605 0.289391 0.126009
0.233852 0.277313 -0.0130751
0.175084 0.232211 -0.129254
0.119185 0.168416 -0.183454
-0.236374 0.0214851 -0.270211
-0.255839 0.0236037 -0.366351
-0.261887 0.0258291 -0.425476
-0.26096 0.0337325 -0.427125
-0.255987 0.0591832 -0.354705
-0.246145 0.107225 -0.217287
-0.230035 0.165875 -0.0579577
-0.203131 0.210252 0.0770073
-0.16012 0.221311 0.157223
-0.0987254 0.19456 0.177889
-0.0225032 0.138916 0.164477
0.0601319 0.0804704 0.15724
0.138645 0.0488027 0.1848
0.20233 0.0638145 0.243199
0.243396 0.125075 0.308366
0.2602 0.212236 0.334714
0.250869 0.295522 0.285603
0.218043 0.345675 0.17637
0.170638 0.348747 0.0368734
0.120503 0.308816 -0.084246
0.0756159 0.23776 -0.147815
-0.257359 0.0215726 -0.218065
-0.27621 0.0192972 -0.288969
-0.2776 0.0177821 -0.3254
-0.268102 0.0255581 -0.312211
-0.251735 0.0535106 -0.238366
-0.23082 0.105803 -0.116435
-0.206539 0.167864 0.015647
-0.176965 0.214457 0.117252
-0.138332 0.225767 0.164023
-0.0890914 0.196523 0.156677
-0.0320898 0.136857 0.123685
0.026343 0.074228 0.105036
0.0792322 0.0399796 0.128183
0.11917 0.0561141 0.188496
0.14097 0.123148 0.261417
0.144709 0.221172 0.301889
0.129989 0.31916 0.273508
0.100594 0.383756 0.185278
0.0639345 0.397229 0.0644319
0.0298479 0.361192 -0.0453306
0.00357521 0.285383 -0.107856
-0.242458 0.0104902 -0.124377
-0.259982 -0.000420043 -0.162583
-0.259919 -0.00769075 -0.175146
-0.248299 -0.000523142 -0.15191
-0.22934 0.0318332 -0.0863939
-0.207426 0.0921115 0.00718699
-0.185225 0.162533 0.0998091
-0.162542 0.217289 0.157809
-0.136967 0.235196 0.16245
-0.107694 0.209402 0.119047
-0.0764086 0.150578 0.057545
-0.0468039 0.0866966 0.0168666
-0.0220332 0.0498968 0.0239455
-0.00601775 0.0633855 0.0756945
-0.00132761 0.128754 0.149648
-0.00666329 0.227334 0.20352
-0.0214425 0.328555 0.20196
-0.0414404 0.397448 0.146309
-0.0613585 0.414732 0.0583984
-0.0741101 0.380309 -0.0262779
-0.0778117 0.30317 -0.0770889
-0.200294 -0.0167732 -0.0203552
-0.216752 -0.0392319 -0.0257291
-0.218643 -0.0525436 -0.0168212
-0.211751 -0.0431013 0.0125094
-0.19958 -0.00156444 0.0652435
-0.186725 0.0725911 0.127119
-0.175639 0.157326 0.179138
-0.16733 0.226019 0.194723
-0.160286 0.255813 0.159668
-0.15414 0.237929 0.0821338
-0.149226 0.18326 -0.00856943
-0.146606 0.119656 -0.0756992
-0.146122 0.0792193 -0.0926239
-0.148701 0.0854255 -0.0591718
-0.154748 0.140966 0.00659474
-0.162446 0.229108 0.0675118
-0.171147 0.32138 0.0908418
-0.17682 0.383908 0.0707334
-0.176478 0.397865 0.0219758
-0.166354 0.363102 -0.0299045
-0.147928 0.28859 -0.0616497
-0.143005 -0.0575843 0.0650155
-0.159565 -0.0923949 0.0857338
-0.167229 -0.110015 0.111465
-0.170605 -0.0949434 0.145023
-0.171748 -0.0395022 0.187433
-0.174598 0.0530272 0.225524
-0.180815 0.156236 0.248338
-0.190658 0.241828 0.235042
-0.203731 0.28587 0.174121
-0.219596 0.277852 0.0739353
-0.237114 0.228837 -0.0391626
-0.255013 0.166077 -0.131687
-0.270753 0.120896 -0.177229
-0.283179 0.116141 -0.171005
-0.291359 0.155421 -0.124691
-0.294137 0.224474 -0.0681523
-0.291095 0.298228 -0.0297108
-0.279401 0.345963 -0.0202221
-0.258506 0.351409 -0.0325042
-0.227732 0.315428 -0.0514388
-0.191487 0.24713 -0.0612516
-0.0833923 -0.10589 0.113199
-0.100775 -0.151365 0.149751
-0.116129 -0.169982 0.186651
-0.132262 -0.146178 0.224595
-0.14977 -0.0740308 0.263642
-0.170744 0.0384175 0.292583
-0.195796 0.160834 0.304633
-0.224261 0.263371 0.282497
-0.255488 0.321166 0.215424
-0.288914 0.322815 0.109284
-0.322016 0.279565 -0.0145289
-0.351713 0.217704 -0.126708
-0.374121 0.167116 -0.201217
-0.387046 0.14931 -0.228047
-0.389329 0.168581 -0.211243
-0.380896 0.213423 -0.171801
-0.362277 0.262717 -0.131835
-0.332752 0.290729 -0.104322
-0.294147 0.285196 -0.0894178
-0.248369 0.247971 -0.0810382
-0.201256 0.188787 -0.07083
-0.0318518 -0.151923 0.123399
-0.0505648 -0.203943 0.165544
-0.0737651 -0.219977 0.207499
-0.102125 -0.185772 0.248801
-0.134467 -0.0978531 0.28943
-0.170602 0.0316641 0.319913
-0.209683 0.169238 0.334898
-0.25055 0.284394 0.319273
-0.292361 0.352176 0.262217
-0.334658 0.361142 0.166038
-0.374111 0.322678 0.046127
-0.406577 0.261667 -0.0732847
-0.427728 0.205956 -0.167726
-0.435069 0.175194 -0.223216
-0.427782 0.17415 -0.237127
-0.407057 0.194002 -0.221534
-0.374497 0.217918 -0.191354
-0.331721 0.226231 -0.159042
-0.282194 0.210389 -0.13012
-0.22974 0.17361 -0.104776
-0.180111 0.125456 -0.0807377
0.0080558 -0.186353 0.106899
-0.0131814 -0.239177 0.14739
-0.0439282 -0.249653 0.189445
-0.0826262 -0.205928 0.232346
-0.126198 -0.106907 0.275132
-0.171732 0.0322674 0.31149
-0.21744 0.17683 0.335601
-0.261676 0.296751 0.334065
-0.30402 0.368612 0.29625
-0.344866 0.38166 0.220795
-0.381183 0.347185 0.116974
-0.408798 0.288077 0.00326582
-0.423685 0.22945 -0.0988781
-0.42342 0.188588 -0.173575
-0.407375 0.170377 -0.213093
-0.377639 0.168312 -0.221241
-0.33677 0.169922 -0.206049
-0.288046 0.16145 -0.177969
-0.235956 0.137983 -0.145551
-0.185105 0.10363 -0.113138
-0.140145 0.0669619 -0.0827563
0.0329919 -0.201839 0.0765668
0.00944508 -0.249935 0.110316
-0.0262572 -0.253542 0.147918
-0.0707003 -0.20362 0.18794
-0.118888 -0.101186 0.229978
-0.165996 0.0374636 0.270048
-0.209431 0.178415 0.30216
-0.247917 0.293743 0.314961
-0.282566 0.363037 0.298566
-0.314294 0.376738 0.248631
-0.341398 0.345632 0.169223
-0.360387 0.290001 0.0729693
-0.367908 0.231634 -0.0229434
-0.361661 0.185184 -0.103108
-0.341122 0.155379 -0.156893
-0.308592 0.137624 -0.182007
-0.267145 0.123181 -0.181324
-0.220776 0.103736 -0.162335
-0.173875 0.0768838 -0.133865
-0.130984 0.0468729 -0.102668
-0.0951946 0.0209557 -0.0733749
0.0416155 -0.194599 0.0462473
0.0171092 -0.234015 0.0718415
-0.0192247 -0.231932 0.101637
-0.0628072 -0.181608 0.13441
-0.107538 -0.0853297 0.169971
-0.148278 0.041373 0.206582
-0.182629 0.167796 0.239012
-0.209863 0.26973 0.25907
-0.232054 0.330412 0.258348
-0.251108 0.342473 0.231454
-0.266363 0.315319 0.178932
-0.275721 0.265857 0.108122
-0.276803 0.211924 0.031098
-0.26768 0.165438 -0.0395222
-0.247888 0.130484 -0.0928147
-0.21933 0.104078 -0.124069
-0.184584 0.08049 -0.13235
-0.147347 0.0558361 -0.122397
-0.111435 0.0293637 -0.101748
-0.0803314 0.00496879 -0.0769958
-0.0554245 -0.0118422 -0.0538205
-0.148914 0.203387 0.061153
-0.166417 0.186161 -0.00264303
-0.164279 0.115393 -0.099171
-0.140538 0.00921955 -0.192866
-0.0981562 -0.104341 -0.239833
-0.0406079 -0.185312 -0.199866
0.0198724 -0.205513 -0.0688193
0.0751555 -0.170299 0.115116
0.112901 -0.101781 0.293333
0.126803 -0.022382 0.413768
0.118988 0.046898 0.440127
0.0966508 0.0976945 0.373555
0.0701242 0.130785 0.245452
0.049134 0.149464 0.101296
0.0400787 0.156091 -0.0182109
0.043427 0.151666 -0.0861229
0.0536163 0.132981 -0.0995031
0.0632855 0.10308 -0.0750572
0.0669794 0.067957 -0.0329024
0.0635876 0.0352434 0.00803018
0.0516707 0.0121871 0.0346323
-0.135803 0.26041 0.140577
-0.150916 0.243673 0.0728771
-0.146102 0.161446 -0.0436035
-0.119674 0.036827 -0.163048
-0.0761234 -0.096067 -0.229851
-0.0185818 -0.192772 -0.194909
0.0396146 -0.22105 -0.0474566
0.0912539 -0.186656 0.164977
0.123495 -0.11437 0.369133
0.12978 -0.0287842 0.502142
0.113447 0.0463556 0.521429
0.0823131 0.102202 0.430845
0.0476986 0.139679 0.271089
0.0207958 0.161647 0.0980549
0.00852035 0.169723 -0.0393175
0.0114672 0.163512 -0.110899
0.0227026 0.138994 -0.117159
0.0337182 0.101385 -0.0814611
0.0383316 0.0601306 -0.0279737
0.0356499 0.0238218 0.0218235
0.0255934 0.000489314 0.0523329
-0.0836693 0.306725 0.244735
-0.0933363 0.29242 0.184918
-0.0881465 0.204146 0.0590122
-0.0668363 0.0683369 -0.079363
-0.033707 -0.076357 -0.167022
0.00928087 -0.183098 -0.150212
0.0506342 -0.216693 -0.00978239
0.0866731 -0.184241 0.202176
0.106321 -0.112516 0.403896
0.103176 -0.0270242 0.527958
0.0799787 0.0474404 0.530882
0.0440204 0.102591 0.420599
0.00583444 0.140061 0.244467
-0.024167 0.162507 0.0631658
-0.0391289 0.170544 -0.0720383
-0.0384177 0.162011 -0.133443
-0.0292597 0.132026 -0.127567
-0.0200362 0.0873756 -0.0825457
-0.0162812 0.0406256 -0.0233635
-0.0177696 0.00153881 0.0294789
-0.0231042 -0.0208163 0.0608911
-0.00690046 0.333846 0.349851
-0.0113216 0.323044 0.303933
-0.00974088 0.23507 0.176425
-0.00151202 0.0980529 0.0252375
0.0105028 -0.0469773 -0.0825924
0.0275361 -0.154084 -0.0917462
0.0421118 -0.187946 0.0245257
0.0552664 -0.156664 0.213144
0.0600201 -0.0886851 0.389633
0.0489188 -0.00907201 0.488159
0.0239029 0.0578949 0.469292
-0.00959155 0.105738 0.346372
-0.0437131 0.137675 0.170685
-0.0704168 0.156722 0.00212644
-0.0847578 0.162933 -0.11201
-0.0861058 0.151606 -0.151801
-0.0811682 0.116819 -0.132001
-0.0770117 0.066232 -0.0821641
-0.0768354 0.0149094 -0.0255293
-0.0785977 -0.0264346 0.02334
-0.0794977 -0.047198 0.0528041
0.0746452 0.336643 0.420525
0.071539 0.330612 0.387844
0.0638153 0.249683 0.264599
0.0509983 0.121559 0.109081
0.0336202 -0.0119389 -0.0117994
0.0170278 -0.108798 -0.0446479
0.000317551 -0.136075 0.0407486
-0.00989686 -0.103987 0.192688
-0.0173772 -0.0415793 0.330136
-0.0297632 0.0272033 0.394146
-0.0467166 0.0800945 0.353726
-0.0661716 0.113797 0.228482
-0.0848963 0.134366 0.0704642
-0.0990278 0.14621 -0.0667511
-0.106438 0.149518 -0.145495
-0.107442 0.136455 -0.158376
-0.107542 0.0996344 -0.129033
-0.111312 0.0461793 -0.0841663
-0.118469 -0.00808274 -0.0406044
-0.124257 -0.0515318 -0.00418419
-0.124491 -0.0717271 0.0207992
0.131822 0.314321 0.422378
0.127035 0.313798 0.395438
0.108045 0.24577 0.280546
0.0734799 0.135538 0.132925
0.0267113 0.0234038 0.0141735
-0.0222607 -0.0542751 -0.0291313
-0.0678824 -0.0690054 0.0299938
-0.0986347 -0.0338671 0.1431
-0.114176 0.0220674 0.237964