# vtk DataFile Version 2.0
Func
ASCII
DATASET RECTILINEAR_GRID
DIMENSIONS 21 21 21
X_COORDINATES 21 double
-4.7619
-4.28571
-3.80952
-3.33333
-2.85714
-2.38095
-1.90476
-1.42857
-0.952381
-0.47619
0
0.47619
0.952381
1.42857
1.90476
2.38095
2.85714
3.33333
3.80952
4.28571
4.7619
Y_COORDINATES 21 double
-4.7619
-4.28571
-3.80952
-3.33333
-2.85714
-2.38095
-1.90476
-1.42857
-0.952381
-0.47619
0
0.47619
0.952381
1.42857
1.90476
2.38095
2.85714
3.33333
3.80952
4.28571
4.7619
Z_COORDINATES 21 double
-4.7619
-4.28571
-3.80952
-3.33333
-2.85714
-2.38095
-1.90476
-1.42857
-0.952381
-0.47619
0
0.47619
0.952381
1.42857
1.90476
2.38095
2.85714
3.33333
3.80952
4.28571
4.7619
POINT_DATA 9261
SCALARS data double 3
LOOKUP_TABLE default
-0.114311 -0.0174076 -0.0229593
-0.129905 -0.0498276 -0.0072031
-0.143666 -0.0907311 0.0154046
-0.152894 -0.132999 0.0353552
-0.15637 -0.168551 0.0409905
-0.153953 -0.192912 0.0196832
-0.144578 -0.197641 -0.0322385
-0.127643 -0.18155 -0.108275
-0.103675 -0.146934 -0.189535
-0.074818 -0.0992201 -0.250425
-0.0451773 -0.0441061 -0.270529
-0.0192661 0.0125632 -0.240068
-0.000547461 0.066745 -0.164385
0.00853956 0.116956 -0.0634632
0.00691184 0.159777 0.0356195
-0.00453768 0.195032 0.108132
-0.0222973 0.221124 0.139423
-0.0415639 0.22963 0.132089
-0.0580602 0.22167 0.0972895
-0.0676576 0.194789 0.0549816
-0.0691667 0.153428 0.0191776
-0.0970356 -0.00285478 -0.0264597
-0.1062 -0.0434277 -0.0094499
-0.113762 -0.0978957 0.0141786
-0.117995 -0.155337 0.0337428
-0.118414 -0.203646 0.0364012
-0.114604 -0.235061 0.0103732
-0.105488 -0.238543 -0.048168
-0.0896015 -0.21245 -0.131003
-0.0671977 -0.161619 -0.216982
-0.040267 -0.0958283 -0.27635
-0.0131692 -0.0251132 -0.286483
0.00874045 0.0413378 -0.23788
0.0217327 0.0984329 -0.139228
0.0233641 0.14651 -0.0165216
0.0136737 0.184241 0.0971684
-0.0051839 0.214981 0.172544
-0.0287182 0.239697 0.19358
-0.0514214 0.248893 0.167917
-0.0687092 0.242556 0.112529
-0.0767199 0.215654 0.0533336
-0.074945 0.171037 0.00873026
-0.0441011 0.0135573 -0.032426
-0.0394355 -0.0337241 -0.0202555
-0.0346572 -0.100683 -0.00206536
-0.029622 -0.17314 0.0120895
-0.0246522 -0.234875 0.0109533
-0.0192525 -0.273548 -0.0154117
-0.0119921 -0.275315 -0.0705791
-0.00154814 -0.23854 -0.146091
0.0127765 -0.171048 -0.220469
0.0298365 -0.0872505 -0.264437
0.0452375 -0.00281345 -0.256492
0.0542263 0.0692117 -0.189463
0.0535952 0.122898 -0.0754827
0.0420091 0.161201 0.0552554
0.0207988 0.187044 0.167268
-0.00561053 0.208725 0.230008
-0.0328477 0.230781 0.228847
-0.055677 0.242592 0.178144
-0.0704451 0.241861 0.101295
-0.0747131 0.219844 0.0288119
-0.0692012 0.17717 -0.0190663
0.0367315 0.0279813 -0.0451707
0.0595225 -0.0231185 -0.0440416
0.0795161 -0.0981176 -0.0375589
0.0954313 -0.180005 -0.0312888
0.105665 -0.250116 -0.0345997
0.110658 -0.292808 -0.0551542
0.112257 -0.292222 -0.0961696
0.112428 -0.246667 -0.150945
0.112962 -0.166975 -0.200265
0.113339 -0.0715569 -0.219514
0.110389 0.0190548 -0.190971
0.100935 0.0888123 -0.110859
0.0829374 0.131848 0.00618012
0.0564757 0.154512 0.12845
0.0247598 0.164734 0.222107
-0.00624396 0.176309 0.258631
-0.0330477 0.197305 0.226964
-0.0517547 0.215294 0.148994
-0.0608149 0.22461 0.0545851
-0.0596378 0.212705 -0.0241008
-0.0503656 0.177007 -0.0669162
0.126685 0.0370571 -0.063949
0.167117 -0.0131268 -0.0785695
0.201563 -0.0887027 -0.087504
0.227283 -0.171548 -0.0910165
0.241264 -0.242755 -0.0941052
0.243837 -0.28484 -0.103495
0.237171 -0.281918 -0.122237
0.223935 -0.232118 -0.146529
0.206383 -0.148328 -0.162932
0.185464 -0.0516243 -0.154703
0.160217 0.034498 -0.109736
0.129986 0.0926818 -0.027747
0.0945146 0.118289 0.0760694
0.0554732 0.121497 0.17216
0.0178077 0.115321 0.232455
-0.0121232 0.118763 0.23364
-0.0325407 0.14247 0.169825
-0.0419751 0.171198 0.070244
-0.0415738 0.195523 -0.0325243
-0.0331333 0.198572 -0.106257
-0.0202126 0.174201 -0.133587
0.208303 0.0388649 -0.0904209
0.262944 -0.00516918 -0.121401
0.30799 -0.0728401 -0.145683
0.338924 -0.147651 -0.157972
0.351856 -0.212181 -0.159213
0.346969 -0.249567 -0.153314
0.327273 -0.245049 -0.1447
0.296552 -0.196598 -0.134273
0.25853 -0.117904 -0.116439
0.216128 -0.0309276 -0.0842879
0.170915 0.0400647 -0.0322892
0.124679 0.0781581 0.0370535
0.078546 0.0809766 0.110521
0.0351179 0.0626937 0.164646
0.000110055 0.0413169 0.180778
-0.0206385 0.040156 0.143403
-0.0281877 0.0712884 0.0527133
-0.023983 0.116178 -0.0567494
-0.0119557 0.160263 -0.153398
0.00381009 0.182485 -0.208925
0.0190494 0.172337 -0.211065
0.262804 0.033428 -0.12002
0.325422 -2.08548e-05 -0.163721
0.375055 -0.0516538 -0.197521
0.405831 -0.109742 -0.212424
0.413085 -0.160335 -0.20655
0.397185 -0.189098 -0.182456
0.362528 -0.183456 -0.147879
0.314114 -0.141595 -0.109272
0.257843 -0.0769665 -0.0686695
0.198824 -0.0100993 -0.027642
0.140929 0.0364224 0.0148817
0.0876495 0.0479627 0.0563236
0.0405731 0.0252232 0.0882212
0.00213937 -0.0139026 0.0955425
-0.0224982 -0.0470963 0.0696374
-0.0285409 -0.048367 0.00232272
-0.0201553 -0.00563038 -0.10171
-0.00179733 0.0592964 -0.206175
0.0207161 0.125784 -0.283608
0.0415922 0.169199 -0.312021
0.0570234 0.174076 -0.284588
0.287153 0.0207559 -0.147016
0.352305 0.00144784 -0.197282
0.401973 -0.0286599 -0.233116
0.429596 -0.0631953 -0.243292
0.430104 -0.0938194 -0.224697
0.403983 -0.110547 -0.181019
0.356821 -0.104216 -0.124703
0.294961 -0.0739411 -0.067836
0.226541 -0.0309052 -0.0188178
0.158627 0.00780231 0.0150842
0.0967048 0.0235808 0.0335176
0.0448669 0.0055991 0.0367626
0.00419605 -0.0420356 0.0233469
-0.0239872 -0.0985624 -0.0122941
-0.0359144 -0.138841 -0.0701268
-0.0285853 -0.135775 -0.152709
-0.00799358 -0.0790169 -0.253572
0.0194738 0.00696263 -0.339145
0.0469738 0.095837 -0.388729
0.0685055 0.159754 -0.387226
0.0814493 0.178479 -0.333049
0.287452 0.00284729 -0.163884
0.35179 -0.00141253 -0.214327
0.399734 -0.00773196 -0.24465
0.42446 -0.0154304 -0.243412
0.420758 -0.0226526 -0.208396
0.389158 -0.0251017 -0.145885
0.336029 -0.0184096 -0.0735191
0.268612 -0.00242622 -0.00836629
0.196628 0.015149 0.0368078
0.128337 0.0221912 0.0521424
0.0697435 0.00579491 0.0386682
0.0243893 -0.0401626 0.00168367
-0.00781926 -0.108442 -0.0523356
-0.027096 -0.176816 -0.119946
-0.0312558 -0.219257 -0.19491
-0.0186816 -0.209535 -0.276413
0.00402389 -0.139831 -0.359027
0.0305536 -0.0362654 -0.416436
0.0548746 0.0708634 -0.435792
0.0721174 0.151318 -0.408773
0.0806927 0.181505 -0.338132
0.270238 -0.0166495 -0.164404
0.331817 -0.00724773 -0.208183
0.378464 0.00869981 -0.226926
0.402957 0.0267054 -0.210559
0.400084 0.042405 -0.159111
0.370219 0.0542208 -0.082093
0.319829 0.061426 -0.00157313
0.256306 0.0636628 0.0621412
0.189836 0.05724 0.0945526
0.128735 0.0354916 0.0862487
0.0782939 -0.00842217 0.041747
0.0405217 -0.0761552 -0.0278021
0.0139001 -0.158344 -0.108778
-0.00314038 -0.232925 -0.190973
-0.00960345 -0.274748 -0.265426
-0.00425406 -0.259861 -0.330567
0.0075679 -0.182888 -0.384486
0.0217191 -0.0697541 -0.41133
0.0343994 0.0476251 -0.40537
0.0430418 0.138459 -0.36377
0.046945 0.176618 -0.291883
0.244025 -0.036768 -0.149772
0.302487 -0.0169857 -0.182312
0.348867 0.0170562 -0.186452
0.376047 0.0568162 -0.154402
0.379019 0.0926166 -0.0891002
0.35787 0.117505 -0.00335538
0.318501 0.125879 0.0779258
0.267557 0.117208 0.133321
0.21435 0.0918143 0.1491
0.165941 0.0482371 0.118662
0.125748 -0.0147647 0.0510519
0.0935608 -0.0952809 -0.0372634
0.0665347 -0.183234 -0.127596
0.0423708 -0.258425 -0.20615
0.021718 -0.298245 -0.264686
0.0067806 -0.282111 -0.303133
-0.00464357 -0.206312 -0.324569
-0.0127442 -0.0944609 -0.3248
-0.0180427 0.0226231 -0.303095
-0.0201892 0.115531 -0.260106
-0.0194245 0.157927 -0.201918
0.212145 -0.0562961 -0.125138
0.266714 -0.0303282 -0.144972
0.312671 0.0161692 -0.135056
0.343656 0.07196 -0.0901042
0.355167 0.123425 -0.0159519
0.346978 0.159217 0.071902
0.323968 0.169594 0.147761
0.291316 0.154277 0.191195
0.256303 0.117154 0.191157
0.22364 0.0611422 0.145162
0.194052 -0.0105092 0.0665328
0.164793 -0.0936797 -0.0246656
0.132021 -0.179104 -0.107553
0.0934332 -0.250014 -0.16805
0.0502432 -0.287723 -0.201175
0.00674759 -0.275638 -0.209692
-0.0348895 -0.210612 -0.201747
-0.0699412 -0.111907 -0.183573
-0.0952217 -0.00657762 -0.156802
-0.107526 0.0793538 -0.123535
-0.107109 0.121962 -0.089056
0.174569 -0.073951 -0.098231
0.223198 -0.045962 -0.106804
0.266525 0.00704414 -0.0861716
0.299641 0.072496 -0.0332702
0.318938 0.134412 0.043679
0.324006 0.178321 0.127557
0.318576 0.191469 0.193841
0.306016 0.174202 0.224761
0.290931 0.1332 0.212993
0.275054 0.0745566 0.160318
0.256097 0.0045312 0.0830809
0.228847 -0.0720006 0.00255893
0.188807 -0.147927 -0.0611781
0.134211 -0.211052 -0.0965159
0.0674348 -0.247471 -0.102833
-0.00466044 -0.244778 -0.085928
-0.0753504 -0.199262 -0.0577253
-0.13519 -0.124261 -0.03142
-0.177585 -0.040922 -0.00853874
-0.19716 0.0299151 0.00896626
-0.19447 0.0692439 0.01756
0.130717 -0.0884756 -0.0767865
0.170427 -0.0619076 -0.0775119
0.207464 -0.0075388 -0.0508575
0.238967 0.0616559 0.00448218
0.262581 0.12883 0.0787972
0.277973 0.177777 0.154644
0.28791 0.194024 0.209985
0.294004 0.178744 0.230625
0.298097 0.140572 0.212984
0.29895 0.0875232 0.162232
0.291502 0.0274013 0.0958851
0.268482 -0.0354064 0.0340086
0.224961 -0.0968495 -0.00660817
0.159827 -0.149904 -0.0184525
0.076693 -0.185785 -0.00484347
-0.015339 -0.196118 0.0262083
-0.105953 -0.175876 0.0613608
-0.182379 -0.131644 0.0855904
-0.235585 -0.0773538 0.0988838
-0.259089 -0.0274107 0.100306
-0.253898 0.00579301 0.088614
0.0818304 -0.097566 -0.0654676
0.110035 -0.0742779 -0.0627973
0.137571 -0.0224894 -0.0350216
0.163714 0.045455 0.018119
0.187518 0.112921 0.0861737
0.20902 0.163376 0.152401
0.230313 0.182006 0.197855
0.251497 0.170838 0.211975
0.272056 0.139685 0.194177
0.288356 0.0974394 0.151627
0.293271 0.0522954 0.101121
0.278215 0.00738159 0.0596179
0.238031 -0.0366017 0.039209
0.172126 -0.0777425 0.0429058
0.0850283 -0.112312 0.064868
-0.0128683 -0.135608 0.0964361
-0.109407 -0.140817 0.125391
-0.190719 -0.128498 0.139234
-0.246822 -0.105422 0.140482
-0.271317 -0.0791092 0.130229
-0.265094 -0.0544773 0.108947
0.0317961 -0.0991372 -0.0660704
0.0475854 -0.0798483 -0.0642852
0.0643318 -0.0328299 -0.039434
0.0832456 0.0303206 0.00844441
0.104612 0.0939191 0.0690959
0.12879 0.142271 0.127059
0.157388 0.161279 0.166103
0.189601 0.153927 0.178674
0.223189 0.130653 0.166036
0.253127 0.100616 0.135676
0.271295 0.0717711 0.102001
0.268697 0.0458054 0.077653
0.240038 0.0203414 0.0696302
0.184901 -0.00722738 0.0770356
0.108041 -0.0378718 0.0935743
0.0198714 -0.0695447 0.111468
-0.0678336 -0.0953411 0.121978
-0.142446 -0.110493 0.119228
-0.194613 -0.115589 0.108953
-0.2191 -0.112094 0.0937957
-0.215985 -0.097578 0.0753591
-0.0123266 -0.0927499 -0.07543
-0.00751855 -0.076845 -0.0774463
-0.000291781 -0.0356165 -0.0577087
0.0119654 0.02068 -0.0162895
0.0303834 0.0774638 0.0375876
0.0555498 0.120789 0.0902361
0.0886567 0.138133 0.127202
0.128348 0.133211 0.142896
0.171541 0.116757 0.139236
0.212839 0.0978125 0.122524
0.244179 0.0838078 0.10367
0.257045 0.0751798 0.090638
0.246107 0.0671927 0.0858126
0.210736 0.0537191 0.0855954
0.155214 0.0302308 0.0850848
0.0886797 -0.00427487 0.0786324
0.0206755 -0.0434319 0.062691
-0.0392169 -0.0784766 0.0408482
-0.0835608 -0.105377 0.0209128
-0.108845 -0.120526 0.00703742
-0.114013 -0.116812 0.00113944
-0.0436501 -0.0788542 -0.0845265
-0.0466243 -0.0652292 -0.090404
-0.0457542 -0.0298536 -0.0761501
-0.0379166 0.0185242 -0.0418861
-0.0218165 0.0667395 0.00527873
0.00356804 0.103002 0.053856
0.0388372 0.116871 0.0907961
0.0820943 0.112634 0.11148
0.130054 0.100919 0.117349
0.177828 0.0904565 0.112654
0.218382 0.0880564 0.10443
0.244593 0.093341 0.0965785
0.251513 0.100165 0.0882395
0.23821 0.100151 0.0749032
0.208024 0.0861363 0.053497
0.168414 0.0547036 0.0214296
0.125328 0.010902 -0.0191207
0.0839677 -0.0343912 -0.056415
0.0492419 -0.0746325 -0.0821348
0.0227736 -0.102372 -0.0918122
0.00661057 -0.108918 -0.0827576
-0.0589384 -0.0592921 -0.0872299
-0.0662846 -0.0467244 -0.0962771
-0.0685764 -0.0168277 -0.0872175
-0.0629243 0.0229667 -0.0595226
-0.047867 0.0614077 -0.0193291
-0.0227789 0.0892829 0.0250065
0.0123719 0.0984212 0.0616088
0.0556788 0.0934293 0.0862952
0.10356 0.0843699 0.0994588
0.152267 0.0793859 0.103106
0.196547 0.0845812 0.100851
0.231301 0.0992499 0.0935932
0.252389 0.116863 0.0787393
0.258744 0.128223 0.0520249
0.252772 0.124477 0.0124274
0.238806 0.100885 -0.0389512
0.21909 0.0606887 -0.0960218
0.195005 0.01466 -0.141599
0.168819 -0.0299682 -0.168889
0.141002 -0.0639355 -0.172203
0.113817 -0.0790014 -0.149435
-0.0596976 -0.037575 -0.0809695
-0.0679861 -0.0253518 -0.0916809
-0.0707178 -0.00063495 -0.0868803
-0.0651863 0.0304906 -0.0654727
-0.050424 0.0590373 -0.032121
-0.0263588 0.0782697 0.00670539
0.00634628 0.0822808 0.0409675
0.0457821 0.0758029 0.066818
0.088515 0.0678411 0.0836768
0.13207 0.0657451 0.091635
0.173301 0.0748252 0.091866
0.209366 0.0943967 0.0834861
0.237333 0.118364 0.063398
0.256684 0.137888 0.027975
0.268 0.143604 -0.0216231
0.27278 0.129993 -0.0817806
0.27081 0.0988269 -0.144366
0.260575 0.05918 -0.19145
0.241991 0.0176483 -0.216299
0.214778 -0.016997 -0.213339
0.181 -0.0380135 -0.182155
-0.049796 -0.0172941 -0.0658224
-0.0568817 -0.00566889 -0.0760588
-0.0587018 0.0138775 -0.0743426
-0.0529899 0.0370089 -0.0590716
-0.0391891 0.0568368 -0.03337
-0.01809 0.0685835 -0.00242875
0.00929029 0.0682534 0.026203
0.0410738 0.0602945 0.0492754
0.0747073 0.0524298 0.0655497
0.108733 0.0511468 0.0740473
0.141773 0.0609662 0.0746251
0.172896 0.081438 0.065757
0.200784 0.107409 0.0447248
0.224556 0.131138 0.00871319
0.243763 0.144032 -0.0397576
0.258146 0.140199 -0.0962563
0.26583 0.119526 -0.152778
0.264109 0.0890003 -0.19392
0.251516 0.054764 -0.213086
0.227855 0.0239528 -0.205995
0.194322 0.000649303 -0.173502
-0.168434 -0.0528825 -0.033705
-0.185882 -0.0948725 -0.0162586
-0.196483 -0.14224 0.0139186
-0.198656 -0.186774 0.045156
-0.193494 -0.22093 0.0630435
-0.183958 -0.242143 0.0482171
-0.17062 -0.242906 -0.00771648
-0.154048 -0.223408 -0.0995377
-0.133586 -0.186061 -0.205603
-0.109648 -0.136973 -0.294477
-0.0843042 -0.080907 -0.338153
-0.0605008 -0.0225734 -0.320736
-0.0402602 0.0355331 -0.245273
-0.0259709 0.0932046 -0.134419
-0.0202773 0.147629 -0.0203209
-0.023898 0.198834 0.0657087
-0.0349759 0.243194 0.104576
-0.0495262 0.266352 0.0984786
-0.0639896 0.268291 0.0620966
-0.0735747 0.244604 0.0187391
-0.0755682 0.198447 -0.0137704
-0.154519 -0.0348796 -0.0419134
-0.164627 -0.0861039 -0.023748
-0.167212 -0.149339 0.00735702
-0.162062 -0.212087 0.0387638
-0.151586 -0.262339 0.0547375
-0.138925 -0.293799 0.0365889
-0.125128 -0.295434 -0.0248921
-0.110183 -0.266252 -0.123175
-0.0931925 -0.210786 -0.234076
-0.073974 -0.140081 -0.321462
-0.0541483 -0.0636784 -0.354282
-0.0371063 0.00954887 -0.316391
-0.0245729 0.0752886 -0.214333
-0.0187099 0.134541 -0.0777888
-0.0210698 0.186392 0.0538998
-0.0312926 0.234749 0.143544
-0.04684 0.278728 0.170129
-0.0633719 0.30243 0.141735
-0.077148 0.304919 0.0798294
-0.0839789 0.279228 0.0153582
-0.0816468 0.226528 -0.0283377
-0.0948585 -0.0110767 -0.0536232
-0.089277 -0.0697448 -0.0414988
-0.0779689 -0.148054 -0.0168913
-0.0626133 -0.229591 0.00838621
-0.0464638 -0.297825 0.0204001
-0.0322208 -0.340841 0.00350684
-0.020664 -0.343393 -0.0515096
-0.0119276 -0.303788 -0.138141
-0.00437711 -0.229208 -0.232369
0.00338406 -0.13568 -0.298997
0.00941228 -0.0392879 -0.308439
0.0112255 0.045965 -0.247286
0.00782614 0.113751 -0.126059
-0.00151231 0.166903 0.0205945
-0.0169685 0.208472 0.150501
-0.0355749 0.247707 0.224733
-0.0551231 0.288019 0.223853
-0.0716549 0.312376 0.164095
-0.082426 0.318109 0.0744693
-0.0847244 0.294661 -0.00825693
-0.0776644 0.240701 -0.0581062
-0.000911106 0.0118134 -0.0717145
0.0246135 -0.0506853 -0.0721644
0.0516888 -0.13911 -0.0610356
0.0771936 -0.233667 -0.0451202
0.0969305 -0.314998 -0.0359872
0.10888 -0.36658 -0.0454841
0.113098 -0.369855 -0.0818661
0.110425 -0.321782 -0.140838
0.103551 -0.232435 -0.201693
0.0940655 -0.122149 -0.235109
0.080841 -0.0130046 -0.216469
0.0630214 0.076502 -0.136766
0.0406748 0.138715 -0.00967385
0.0146533 0.178961 0.128259
-0.0129882 0.205061 0.236886
-0.0377718 0.232445 0.279528
-0.058134 0.269 0.241057
-0.0713644 0.296304 0.146668
-0.0766935 0.309094 0.0331791
-0.0733452 0.293363 -0.06011
-0.0619441 0.24419 -0.107216
0.104828 0.028043 -0.0943073
0.148618 -0.0328629 -0.111748
0.188831 -0.123297 -0.117775
0.221147 -0.221773 -0.113098
0.24076 -0.308249 -0.104624
0.246746 -0.363135 -0.101555
0.240142 -0.366629 -0.110901
0.223389 -0.31445 -0.131757
0.198987 -0.218363 -0.150535
0.169408 -0.101924 -0.147416
0.135006 0.00855274 -0.105086
0.0971546 0.0917229 -0.0193345
0.0572553 0.139835 0.0950778
0.0177477 0.161295 0.203893
-0.0172564 0.169167 0.273738
-0.0427354 0.184896 0.274169
-0.0586281 0.220263 0.196209
-0.064217 0.254624 0.0736551
-0.0612315 0.27987 -0.0528615
-0.0510457 0.277874 -0.143591
-0.0360507 0.239754 -0.17586
0.202669 0.0346271 -0.120367
0.259994 -0.0192217 -0.154502
0.307958 -0.102393 -0.177166
0.340745 -0.194824 -0.18304
0.353874 -0.27766 -0.17447
0.347536 -0.330822 -0.156005
0.324565 -0.334738 -0.134533
0.289424 -0.284025 -0.114188
0.245738 -0.19094 -0.0905723
0.197235 -0.0804554 -0.0554862
0.145869 0.0191073 -0.000261011
0.0948282 0.0854437 0.0750255
0.0461093 0.111933 0.157198
0.00283269 0.110457 0.218838
-0.0298611 0.0995922 0.237425
-0.0474458 0.106084 0.191923
-0.0522591 0.144512 0.080861
-0.0460945 0.191762 -0.0556897
-0.0330056 0.235364 -0.177963
-0.0163688 0.252928 -0.250447
0.00044877 0.230897 -0.256465
0.267734 0.0302107 -0.145313
0.330795 -0.0124505 -0.191388
0.37922 -0.0793539 -0.223994
0.406182 -0.155962 -0.233633
0.407643 -0.2264 -0.219679
0.385252 -0.272472 -0.183824
0.344335 -0.276308 -0.134906
0.291338 -0.231849 -0.0828169
0.231737 -0.151467 -0.0318265
0.17071 -0.0589176 0.0163195
0.111519 0.0181227 0.0641498
0.0581785 0.0585824 0.110458
0.0121864 0.0581897 0.146873
-0.0239272 0.032397 0.155598
-0.0455355 0.00505872 0.125625
-0.0487725 0.00644916 0.0447226
-0.0389275 0.0525957 -0.0829124
-0.0202875 0.117836 -0.214992
0.00163989 0.184212 -0.316716
0.0221952 0.225277 -0.35967
0.0383673 0.222173 -0.333703
0.296777 0.0143005 -0.164842
0.359528 -0.014202 -0.215816
0.403769 -0.0590407 -0.249893
0.422498 -0.111743 -0.25515
0.412377 -0.162129 -0.22961
0.376128 -0.196029 -0.175428
0.321179 -0.198794 -0.105106
0.255733 -0.165359 -0.0342788
0.187355 -0.106078 0.0257918
0.122476 -0.041368 0.0667548
0.0650694 0.00437865 0.0887083
0.018772 0.0133404 0.0928938
-0.0163668 -0.0155705 0.0784517
-0.0394723 -0.0637427 0.0384589
-0.0472487 -0.103295 -0.0280912
-0.0374266 -0.102001 -0.126701
-0.0165572 -0.0445354 -0.250738
0.00938475 0.0416713 -0.361048
0.0343916 0.132689 -0.430901
0.0538077 0.198398 -0.440024
0.0662443 0.214504 -0.384637
0.297985 -0.0109143 -0.173441
0.35763 -0.0250843 -0.222663
0.397162 -0.0455247 -0.249978
0.409906 -0.0701562 -0.243318
0.393232 -0.0954335 -0.201795
0.350475 -0.11303 -0.130053
0.290323 -0.113837 -0.0451985
0.222001 -0.0938421 0.0321258
0.154446 -0.0603028 0.0860725
0.0946442 -0.0286528 0.105374
0.0463017 -0.0178626 0.0911781
0.0115557 -0.0410277 0.0499029
-0.0114839 -0.0957906 -0.0105377
-0.0239824 -0.161393 -0.0866826
-0.0240397 -0.207841 -0.172416
-0.0104991 -0.203103 -0.269155
0.0100365 -0.133707 -0.371161
0.0321891 -0.0281294 -0.447919
0.0513973 0.085213 -0.482384
0.0643796 0.172712 -0.46208
0.0709728 0.206265 -0.388502
0.280061 -0.0393701 -0.166224
0.336089 -0.0411459 -0.206837
0.373532 -0.038753 -0.221061
0.385748 -0.0361096 -0.198492
0.370522 -0.035984 -0.140728
0.331221 -0.0363348 -0.0558178
0.276698 -0.0344104 0.0348269
0.21613 -0.0272748 0.107474
0.158647 -0.0186173 0.144721
0.110778 -0.0182494 0.135901
0.074919 -0.0389782 0.08584
0.0509166 -0.0889665 0.00731012
0.0350427 -0.163072 -0.0837701
0.0244164 -0.239832 -0.176117
0.0201181 -0.28919 -0.26045
0.0232587 -0.280965 -0.337148
0.0291961 -0.203887 -0.404281
0.0352863 -0.0858138 -0.443746
0.0399197 0.0424341 -0.447825
0.0422149 0.145684 -0.410349
0.0427984 0.192573 -0.335941
0.253306 -0.0687996 -0.145953
0.306857 -0.0616274 -0.173791
0.345251 -0.0406543 -0.172002
0.362197 -0.0144805 -0.132869
0.355704 0.00871939 -0.0611702
0.328759 0.025009 0.0313406
0.289413 0.0306674 0.120145
0.245667 0.0277519 0.180716
0.205436 0.0162029 0.196945
0.173595 -0.00830071 0.161529
0.150264 -0.0525211 0.0843987
0.132557 -0.120253 -0.0157302
0.115378 -0.204782 -0.117219
0.0949418 -0.285625 -0.204658
0.0724965 -0.33484 -0.269623
0.050555 -0.325507 -0.314116
0.0284423 -0.248189 -0.341776
0.0080873 -0.128163 -0.348266
-0.00807941 0.0038473 -0.33293
-0.018078 0.113321 -0.293502
-0.0212225 0.168286 -0.235434
0.221596 -0.0965248 -0.118316
0.272856 -0.0844373 -0.132552
0.313154 -0.0505199 -0.115718
0.337056 -0.0064884 -0.0630113
0.342821 0.0354308 0.0176347
0.332886 0.0662614 0.111236
0.313902 0.0764914 0.191995
0.291909 0.0677318 0.236868
0.272486 0.0432547 0.23324
0.257902 0.00348909 0.17871
0.245368 -0.0531625 0.0882333
0.22918 -0.127329 -0.0153534
0.203484 -0.21225 -0.107932
0.164448 -0.290152 -0.173817
0.114425 -0.33723 -0.208438
0.0584695 -0.330757 -0.217015
0.00114921 -0.262404 -0.208891
-0.0500805 -0.152932 -0.19197
-0.0883661 -0.0303872 -0.16953
-0.109022 0.0738741 -0.140849
-0.112034 0.13028 -0.110342
0.18428 -0.119932 -0.0909376
0.231228 -0.106537 -0.0937203
0.271051 -0.0654819 -0.0657645
0.299808 -0.0100219 -0.00484549
0.316291 0.0451373 0.0785039
0.32249 0.0873321 0.167045
0.323595 0.102599 0.235612
0.323434 0.0926188 0.264474
0.324775 0.0633827 0.245706
0.326802 0.0189075 0.182039
0.323678 -0.038638 0.0921942
0.307105 -0.10819 0.00051594
0.27091 -0.184447 -0.0698201
0.211795 -0.253767 -0.106054
0.133647 -0.297946 -0.108774
0.044455 -0.298925 -0.0866857
-0.0458912 -0.248591 -0.0534314
-0.124706 -0.16166 -0.0250257
-0.181169 -0.0613181 -0.00553554
-0.208567 0.0266738 0.0059459
-0.207918 0.0781774 0.00710722
0.139748 -0.137142 -0.0713434
0.178557 -0.125088 -0.0666983
0.213002 -0.0816421 -0.0328565
0.241253 -0.0206297 0.030319
0.263049 0.0422184 0.110677
0.280274 0.0920586 0.190029
0.297044 0.112157 0.245157
0.315257 0.104658 0.260627
0.335026 0.0776541 0.233242
0.352603 0.0375689 0.169909
0.35948 -0.0111226 0.0911491
0.345225 -0.0670501 0.0201529
0.303437 -0.127553 -0.0236565
0.231428 -0.184112 -0.0323062
0.134363 -0.224947 -0.0110524
0.0227139 -0.236793 0.0288481
-0.089577 -0.211102 0.0720249
-0.186165 -0.155688 0.100375
-0.2535 -0.0873451 0.111031
-0.283797 -0.0243689 0.105735
-0.278855 0.0167703 0.0849247
0.0883226 -0.145594 -0.0637085
0.115156 -0.135872 -0.0567311
0.139484 -0.0935846 -0.0223682
0.161653 -0.031979 0.0382352
0.182666 0.0331362 0.111948
0.20466 0.0862556 0.180558
0.231218 0.109742 0.223568
0.262727 0.106438 0.229873
0.297283 0.0859553 0.200204
0.328901 0.0561491 0.144132
0.347232 0.0225952 0.0819213
0.340489 -0.0139934 0.0334926
0.30203 -0.0541767 0.0128692
0.229611 -0.0948738 0.0227591
0.128994 -0.130948 0.0548699
0.011977 -0.153714 0.0971418
-0.105619 -0.153556 0.135344
-0.206362 -0.132264 0.154081
-0.275882 -0.100178 0.153561
-0.306346 -0.0670679 0.137484
-0.299359 -0.0402798 0.107937
0.0343381 -0.143537 -0.0695822
0.0473276 -0.136036 -0.0649701
0.0590795 -0.0965859 -0.0344868
0.0720568 -0.0378523 0.0203819
0.0884004 0.0250061 0.0866098
0.110539 0.0770293 0.146345
0.141793 0.101166 0.181406
0.181935 0.101219 0.18436
0.227808 0.0879405 0.158567
0.272309 0.0700571 0.11441
0.304382 0.0535674 0.0700169
0.311801 0.0381623 0.0406674
0.287452 0.0200851 0.03449
0.229156 -0.00275116 0.0495735
0.142224 -0.0315443 0.0769917
0.0382895 -0.0610607 0.105755
-0.0676772 -0.0827945 0.125035
-0.15974 -0.0926284 0.126954
-0.224645 -0.0947035 0.116277
-0.255475 -0.091421 0.0976991
-0.252441 -0.0809289 0.074157
-0.0140114 -0.130953 -0.0850922
-0.0137061 -0.124435 -0.0859447
-0.0134905 -0.0885718 -0.0615963
-0.0093837 -0.0348544 -0.0136266
0.0016555 0.0223073 0.0460243
0.0222093 0.0695717 0.100567
0.0555249 0.0916713 0.133036
0.101087 0.093218 0.138395
0.155529 0.0857892 0.121304
0.211648 0.0785895 0.0911817
0.258756 0.0776561 0.062691
0.285099 0.0817097 0.0460251
0.282993 0.0843973 0.0439427
0.249919 0.0793154 0.0513013
0.189855 0.060536 0.0608751
0.112776 0.0288893 0.063927
0.030623 -0.00823337 0.0550637
-0.0442253 -0.042102 0.0373153
-0.101189 -0.0718489 0.0187398
-0.134725 -0.0934338 0.00482678
-0.142951 -0.0989012 -0.00162351
-0.0484918 -0.109112 -0.0997577
-0.0571953 -0.102188 -0.105919
-0.064658 -0.0699388 -0.0879604
-0.0663896 -0.0224928 -0.0476808
-0.0592244 0.026835 0.00542152
-0.0401606 0.0667788 0.0564743
-0.00639747 0.0845753 0.0894911
0.0412492 0.0855274 0.100457
0.0996753 0.0815289 0.09378
0.162517 0.0819825 0.0768949
0.220472 0.0927657 0.0603166
0.263341 0.111988 0.0497428
0.283347 0.131653 0.0441299
0.277652 0.142344 0.0372598
0.248522 0.134718 0.0240089
0.204034 0.106038 -0.000806425
0.15129 0.0619721 -0.0362894
0.0976686 0.013971 -0.0703368
0.0502732 -0.0337435 -0.0931035
0.0130535 -0.0724931 -0.0996484
-0.00997759 -0.0914342 -0.0868411
-0.0652701 -0.0807371 -0.106725
-0.0787484 -0.0722518 -0.117242
-0.0895191 -0.0435612 -0.105162
-0.0934517 -0.00349985 -0.0716089
-0.0872693 0.0363223 -0.0250882
-0.0686615 0.0672438 0.0226909
-0.0354709 0.0792584 0.0567135
0.0115375 0.0780439 0.0733882
0.0692316 0.0752004 0.0758983
0.132711 0.0798334 0.0693495
0.194922 0.097425 0.0604372
0.248101 0.125925 0.0514492
0.28511 0.156851 0.0392044
0.303145 0.179423 0.0176289
0.303159 0.182165 -0.0160799
0.289403 0.160685 -0.0627276
0.264405 0.118234 -0.117211
0.230875 0.0668648 -0.161068
0.192298 0.0122539 -0.185197
0.151528 -0.0346211 -0.183708
0.113868 -0.0623665 -0.154539
-0.0658529 -0.0504864 -0.10229
-0.0797437 -0.0400955 -0.115193
-0.0899672 -0.0151952 -0.107925
-0.0926518 0.0168089 -0.0808759
-0.0852998 0.0465802 -0.0408904
-0.0666029 0.0679699 0.00225348
-0.0353527 0.0737276 0.0354695
0.00756827 0.0696673 0.0554761
0.0592214 0.0663688 0.0641795
0.116308 0.0722039 0.0643794
0.174383 0.0920374 0.0599077
0.228543 0.124008 0.0509033
0.273042 0.16015 0.0334562
0.306123 0.189811 0.00199819
0.326326 0.201122 -0.0434769
0.33495 0.18856 -0.101005
0.331117 0.15398 -0.162976
0.313971 0.107875 -0.209789
0.283946 0.056086 -0.232186
0.24297 0.00926794 -0.224556
0.19666 -0.0226207 -0.18649
-0.0546794 -0.0233163 -0.0858176
-0.0662389 -0.0118292 -0.0981946
-0.0737873 0.00865469 -0.09433
-0.0740925 0.0326568 -0.073881
-0.0654426 0.0530768 -0.0418287
-0.0478746 0.0658504 -0.0063489
-0.021065 0.0661531 0.0224339
0.0138374 0.0594363 0.0417269
0.0547652 0.0548476 0.0523738
0.0996769 0.0597143 0.0555756
0.146393 0.078232 0.053372
0.192613 0.108926 0.0449581
0.234974 0.14497 0.0267555
0.27149 0.176887 -0.00596801
0.29986 0.194073 -0.051579
0.319401 0.190296 -0.10667
0.327457 0.165519 -0.163748
0.321359 0.128432 -0.205748
0.299816 0.0853396 -0.224062
0.264235 0.0447027 -0.214114
0.219208 0.0134219 -0.176644
-0.215703 -0.101735 -0.0492038
-0.230481 -0.14911 -0.0323453
-0.232705 -0.194177 0.00434957
-0.223206 -0.22992 0.0482233
-0.206394 -0.252317 0.0819612
-0.188821 -0.262233 0.0791281
-0.173211 -0.257266 0.0251093
-0.160894 -0.239138 -0.0779676
-0.149739 -0.209865 -0.207558
-0.136718 -0.173743 -0.327571
-0.120985 -0.131865 -0.401805
-0.102762 -0.0853189 -0.406672
-0.0821639 -0.0334763 -0.340825
-0.0611864 0.0251755 -0.227546
-0.0443843 0.0884663 -0.102631
-0.0354759 0.155255 -0.00388391
-0.0349801 0.21921 0.0445413
-0.0411009 0.26044 0.043361
-0.0516667 0.27669 0.0101982
-0.0613205 0.261991 -0.0291425
-0.0652682 0.218245 -0.0535769
-0.210212 -0.0843475 -0.0645454
-0.217675 -0.14063 -0.0485485
-0.210535 -0.201307 -0.0116493
-0.19122 -0.255303 0.0329949
-0.165873 -0.294691 0.0666373
-0.1421 -0.316761 0.0630141
-0.123912 -0.315064 0.00572289
-0.112565 -0.289401 -0.102595
-0.105886 -0.243073 -0.236861
-0.0998366 -0.184918 -0.356052
-0.0923596 -0.120445 -0.420007
-0.0835157 -0.0551848 -0.403962
-0.0724483 0.00895875 -0.309683
-0.0604721 0.0736659 -0.167913
-0.0511627 0.138075 -0.022652
-0.047516 0.204417 0.080939
-0.0499441 0.268979 0.116139
-0.0567024 0.310226 0.0899614
-0.0656901 0.325593 0.0275905
-0.0721996 0.306827 -0.0361109
-0.071613 0.25396 -0.0736496
-0.154071 -0.0562779 -0.0833182
-0.146656 -0.119415 -0.0749097
-0.126018 -0.195695 -0.0458692
-0.0963632 -0.269955 -0.00820853
-0.0645414 -0.330114 0.0215471
-0.0376299 -0.367414 0.021003
-0.0197637 -0.369882 -0.026585
-0.0127641 -0.335833 -0.118941
-0.0143153 -0.270321 -0.231683
-0.0192792 -0.186621 -0.325196
-0.0260437 -0.0969118 -0.361091
-0.0335595 -0.0127548 -0.317499
-0.0398408 0.0605457 -0.20042
-0.0444809 0.125015 -0.046041
-0.0494383 0.182697 0.0981617
-0.0551068 0.240791 0.184729
-0.0621932 0.300116 0.188343
-0.06946 0.338667 0.125356
-0.075663 0.353345 0.0294429
-0.0774533 0.332932 -0.0576934
-0.0716411 0.275357 -0.104821
-0.0608606 -0.0263627 -0.10642
-0.0355565 -0.092555 -0.111648
-0.00172003 -0.180067 -0.0973861
0.0355267 -0.270171 -0.0706411
0.0690803 -0.347891 -0.0446416
0.0931809 -0.398785 -0.036559
0.104683 -0.406041 -0.061839
0.102691 -0.365087 -0.120483
0.0901354 -0.283188 -0.192234
0.0710907 -0.177651 -0.244338
0.0475686 -0.067348 -0.24454
0.0218378 0.0301459 -0.176292
-0.00311835 0.10629 -0.0493928
-0.025366 0.163799 0.0976155
-0.0442404 0.208406 0.219195
-0.0585268 0.253336 0.270149
-0.0691389 0.304682 0.230073
-0.075551 0.340313 0.125381
-0.0778803 0.356251 -0.00129125
-0.0745436 0.338748 -0.104415
-0.0640121 0.282549 -0.152541
0.0456914 -0.00235156 -0.129845
0.0856083 -0.0664816 -0.151898
0.127484 -0.158 -0.155577
0.165985 -0.256095 -0.141448
0.194652 -0.344471 -0.117655
0.210089 -0.40426 -0.0968877
0.210877 -0.415553 -0.0921833
0.197974 -0.37104 -0.106779
0.173363 -0.278978 -0.128362
0.140328 -0.160148 -0.134916
0.101428 -0.0389542 -0.10319
0.0601089 0.062183 -0.0228661
0.0200828 0.132457 0.0943352
-0.0155384 0.175862 0.211882
-0.0435597 0.202508 0.291304
-0.0621071 0.232019 0.294471
-0.0726083 0.275627 0.208005
-0.0754583 0.310717 0.0681685