# vtk DataFile Version 2.0
Func
ASCII
DATASET RECTILINEAR_GRID
DIMENSIONS 21 21 21
X_COORDINATES 21 double
-0.47619
-0.428571
-0.380952
-0.333333
-0.285714
-0.238095
-0.190476
-0.142857
-0.0952381
-0.047619
0
0.047619
0.0952381
0.142857
0.190476
0.238095
0.285714
0.333333
0.380952
0.428571
0.47619
Y_COORDINATES 21 double
-0.47619
-0.428571
-0.380952
-0.333333
-0.285714
-0.238095
-0.190476
-0.142857
-0.0952381
-0.047619
0
0.047619
0.0952381
0.142857
0.190476
0.238095
0.285714
0.333333
0.380952
0.428571
0.47619
Z_COORDINATES 21 double
-0.47619
-0.428571
-0.380952
-0.333333
-0.285714
-0.238095
-0.190476
-0.142857
-0.0952381
-0.047619
0
0.047619
0.0952381
0.142857
0.190476
0.238095
0.285714
0.333333
0.380952
0.428571
0.47619
POINT_DATA 9261
SCALARS data double 3
LOOKUP_TABLE default
-0.157883 -0.322607 0.0190968
-0.159022 -0.336013 0.0088282
-0.149376 -0.321289 -0.00160944
-0.136281 -0.307675 -0.00548893
-0.112564 -0.259012 -0.0239871
-0.094389 -0.21058 -0.00322745
-0.0792637 -0.154379 0.0313762
-0.0750813 -0.0882928 0.0490432
-0.0562796 -0.0529147 0.0553607
-0.0474601 0.0101682 0.0541314
-0.0397925 0.0749367 0.0451989
-0.0219611 0.0868563 0.0617981
-0.000416 0.0783078 0.0897526
0.0328604 0.0469789 0.141127
0.043021 0.0508019 0.164456
0.056866 0.0414939 0.170935
0.0658486 0.0474778 0.169469
0.0746817 0.0805885 0.162636
0.0763676 0.0916551 0.158215
0.0778181 0.0908095 0.122084
0.0775413 0.0762392 0.0839975
-0.210932 -0.350451 0.0123688
-0.216094 -0.366261 0.0122617
-0.209996 -0.349624 0.0122501
-0.198914 -0.332957 0.00766656
-0.178897 -0.278568 -0.00962202
-0.163754 -0.223836 0.00551566
-0.150329 -0.160594 0.0345418
-0.145298 -0.0886886 0.0506909
-0.125846 -0.0484449 0.0471718
-0.115322 0.0219394 0.0451437
-0.106026 0.0938393 0.0379941
-0.0842333 0.10779 0.0563632
-0.0580121 0.0983332 0.085259
-0.0149953 0.0618687 0.137687
-0.00142455 0.0636211 0.162556
0.0203816 0.0495122 0.171387
0.037776 0.05335 0.177415
0.0585334 0.0887371 0.185626
0.0632323 0.100479 0.185245
0.0694896 0.0999708 0.153122
0.0720302 0.0846437 0.113004
-0.240437 -0.372461 0.000171488
-0.248948 -0.388525 0.00847767
-0.247756 -0.368967 0.0170044
-0.240727 -0.348326 0.0116483
-0.228811 -0.28871 -0.00736807
-0.220179 -0.228683 -0.000168567
-0.211008 -0.160012 0.0202848
-0.20604 -0.0855168 0.0357521
-0.189531 -0.0429279 0.0226738
-0.179496 0.0315425 0.022437
-0.170743 0.1076 0.0210952
-0.148417 0.12268 0.0434917
-0.12148 0.112317 0.073179
-0.0740093 0.0719975 0.121706
-0.0591772 0.0710983 0.145964
-0.0321442 0.0524225 0.153578
-0.00856156 0.0541782 0.162998
0.0225339 0.0927903 0.184713
0.0308927 0.104859 0.187405
0.0430364 0.1059 0.163902
0.0498614 0.09101 0.128072
-0.23829 -0.382395 -0.00585744
-0.249046 -0.39813 0.00158038
-0.252512 -0.376703 0.00798174
-0.250371 -0.353067 -0.000951271
-0.248315 -0.291603 -0.0215368
-0.246426 -0.229584 -0.0195087
-0.242095 -0.159427 -0.00623278
-0.237085 -0.0848953 0.00768592
-0.222052 -0.0440029 -0.00551056
-0.212281 0.0309208 -0.00145696
-0.204489 0.107964 0.00461281
-0.184583 0.121829 0.0315215
-0.159912 0.11078 0.0612911
-0.11319 0.069797 0.104684
-0.098519 0.0689623 0.126716
-0.0692306 0.0499614 0.133496
-0.0424841 0.0524757 0.142155
-0.00542157 0.0934531 0.165945
0.00547073 0.106723 0.17311
0.0216063 0.107874 0.158839
0.0316735 0.0926623 0.131587
-0.195242 -0.394775 -0.0519845
-0.201537 -0.404343 -0.0434273
-0.204382 -0.375368 -0.034025
-0.205657 -0.346653 -0.0440857
-0.207462 -0.279116 -0.0840192
-0.209986 -0.210512 -0.0955499
-0.208567 -0.134355 -0.094589
-0.20188 -0.0602276 -0.0778882
-0.187129 -0.0197211 -0.107883
-0.1761 0.0528523 -0.0939801
-0.168885 0.127314 -0.0695568
-0.153355 0.140239 -0.0346496
-0.134277 0.127423 -0.00166609
-0.0949631 0.0826194 0.0380754
-0.0831137 0.0767557 0.0595039
-0.0571759 0.0492402 0.0581906
-0.032425 0.0454546 0.0619838
0.00298644 0.0909878 0.100946
0.012768 0.100683 0.106116
0.0269584 0.104878 0.10622
0.034085 0.0932025 0.0920588
-0.183515 -0.39482 -0.0382308
-0.194348 -0.399417 -0.0323504
-0.205248 -0.365537 -0.0252678
-0.213664 -0.332949 -0.0402249
-0.229534 -0.262434 -0.0903717
-0.241503 -0.19027 -0.109182
-0.246945 -0.1112 -0.111789
-0.24074 -0.0385389 -0.0963132
-0.229573 -0.000694812 -0.124125
-0.218305 0.0675412 -0.0995458
-0.211129 0.138048 -0.058479
-0.19753 0.149033 -0.0212904
-0.18073 0.134957 0.0113739
-0.144145 0.0880941 0.0414954
-0.132853 0.0806999 0.0643764
-0.10633 0.0487132 0.0541212
-0.0801573 0.0412096 0.0505191
-0.0405843 0.0886065 0.0856376
-0.0299429 0.09536 0.0930378
-0.0129937 0.100877 0.0999829
-0.00291061 0.0911392 0.0936075
-0.180793 -0.388406 -0.00891309
-0.199289 -0.387442 -0.00495963
-0.220389 -0.348171 -0.00141083
-0.237018 -0.311826 -0.0220531
-0.270496 -0.239065 -0.0793851
-0.293914 -0.163339 -0.103488
-0.307573 -0.0809963 -0.109764
-0.302148 -0.00877973 -0.0965904
-0.295898 0.026306 -0.120601
-0.284914 0.0900769 -0.088427
-0.277234 0.156203 -0.0332889
-0.264512 0.16577 0.00369844
-0.248963 0.150927 0.0367641
-0.214074 0.102125 0.0617864
-0.202049 0.0938115 0.0882881
-0.173806 0.0569398 0.0708135
-0.145957 0.044776 0.0597351
-0.10188 0.0924575 0.0859533
-0.0908558 0.0944793 0.0962039
-0.0707146 0.0993576 0.104387
-0.0561995 0.0899399 0.100736
-0.150912 -0.370957 -0.00462759
-0.174114 -0.366173 -0.00503919
-0.202169 -0.324747 -0.00535723
-0.22398 -0.287378 -0.0268906
-0.268028 -0.217674 -0.0873857
-0.298614 -0.14283 -0.113746
-0.317327 -0.0603994 -0.123958
-0.31302 0.0101467 -0.117611
-0.312388 0.0438174 -0.143694
-0.303504 0.104875 -0.113673
-0.297178 0.168835 -0.0594468
-0.286032 0.179128 -0.019614
-0.272697 0.166641 0.01747
-0.243023 0.122101 0.0450944
-0.231279 0.114301 0.076756
-0.206438 0.0762318 0.0613408
-0.182394 0.0606012 0.0496875
-0.142165 0.104004 0.0731833
-0.13402 0.100048 0.0845293
-0.114737 0.100623 0.0933978
-0.0987131 0.0883464 0.0914463
-0.114815 -0.358708 -0.0144187
-0.142236 -0.348253 -0.0241378
-0.178145 -0.302053 -0.0334972
-0.205259 -0.261326 -0.0508358
-0.26452 -0.188128 -0.134624
-0.304235 -0.107384 -0.164235
-0.330688 -0.0186249 -0.175697
-0.32919 0.054676 -0.168052
-0.334079 0.0847163 -0.2008
-0.326225 0.139859 -0.169273
-0.319347 0.197328 -0.109391
-0.31205 0.208006 -0.0746918
-0.302471 0.19522 -0.0345988
-0.280579 0.144786 0.0103979
-0.26833 0.137537 0.0458518
-0.246467 0.0922455 0.0327734
-0.2248 0.0699067 0.0168615
-0.186469 0.113823 0.0343584
-0.180942 0.104914 0.0366567
-0.162025 0.106898 0.0341234
-0.144682 0.0958424 0.0266628
-0.0585764 -0.338817 0.0130645
-0.0870263 -0.324825 -0.00326745
-0.126097 -0.277929 -0.0203513
-0.155021 -0.237814 -0.0371562
-0.221542 -0.167277 -0.124666
-0.266269 -0.0869341 -0.148956
-0.297951 0.0022506 -0.153433
-0.300718 0.07542 -0.143296
-0.312964 0.102669 -0.168658
-0.309721 0.154049 -0.137524
-0.30594 0.207746 -0.0801428
-0.303925 0.220607 -0.0524402
-0.29954 0.20996 -0.0129855
-0.288081 0.158309 0.0384995
-0.276601 0.151661 0.077303
-0.261067 0.101788 0.065072
-0.246122 0.073872 0.0448558
-0.216588 0.115484 0.0477656
-0.214271 0.102587 0.0430508
-0.197671 0.105213 0.0267884
-0.180169 0.0948437 0.0110923
0.0051474 -0.316092 0.056301
-0.0217677 -0.298468 0.0326322
-0.060374 -0.2514 0.0079212
-0.0879223 -0.213057 -0.00983956
-0.156077 -0.146701 -0.0937031
-0.202389 -0.0684652 -0.106762
-0.237246 0.0192803 -0.0963942
-0.244929 0.0912586 -0.0812573
-0.265265 0.1152 -0.0889909
-0.268871 0.163052 -0.0548326
-0.270676 0.213236 0.00106769
-0.275657 0.228135 0.0193312
-0.27797 0.218842 0.0546007
-0.278582 0.164719 0.105194
-0.268961 0.15707 0.145939
-0.2611 0.101428 0.13019
-0.254143 0.0678977 0.102286
-0.235454 0.108156 0.0833139
-0.235778 0.0932149 0.0721475
-0.222088 0.0981088 0.039425
-0.204992 0.0899319 0.0132676
0.0333851 -0.265181 0.0567741
0.00984452 -0.243633 0.0300053
-0.0239555 -0.19899 0.00182042
-0.0480326 -0.164794 -0.0158356
-0.106068 -0.110622 -0.0904369
-0.146401 -0.0418299 -0.0919699
-0.17792 0.0371751 -0.0694914
-0.187993 0.100909 -0.0525375
-0.208388 0.122319 -0.0481211
-0.214536 0.166588 -0.0154226
-0.21855 0.213597 0.0324448
-0.225038 0.231653 0.0465211
-0.22841 0.225625 0.0809038
-0.232947 0.174448 0.13888
-0.223943 0.161536 0.179479
-0.22089 0.098732 0.167479
-0.219441 0.056647 0.139121
-0.20907 0.0889621 0.110297
-0.211545 0.0697667 0.0933579
-0.20038 0.0744752 0.046942
-0.184208 0.0681994 0.0108096
0.0501793 -0.217707 0.052071
0.0301291 -0.192113 0.023541
0.00226368 -0.148727 -0.00630642
-0.0172106 -0.116404 -0.0240024
-0.0638695 -0.0710915 -0.089751
-0.0976846 -0.00989221 -0.0814011
-0.125996 0.0613051 -0.0469871
-0.138943 0.117114 -0.0255224
-0.160518 0.136012 -0.00554353
-0.170495 0.175837 0.0303956
-0.178361 0.218601 0.0747868
-0.187259 0.238835 0.0877925
-0.192417 0.234579 0.121671
-0.200509 0.184133 0.183526
-0.192715 0.164698 0.221298
-0.193446 0.0940532 0.208725
-0.195557 0.0434964 0.177844
-0.190789 0.0683992 0.13912
-0.192899 0.0459892 0.114523
-0.181769 0.0522459 0.0546023
-0.164589 0.0493428 0.00889267
0.045685 -0.157147 0.0485764
0.0291081 -0.128455 0.025447
0.00760814 -0.0868397 0.000318276
-0.00720027 -0.054337 -0.0147232
-0.0429894 -0.0176872 -0.067281
-0.0711836 0.03666 -0.0556406
-0.0966223 0.0999796 -0.0172434
-0.112082 0.14506 0.00892709
-0.134144 0.16193 0.0450804
-0.146991 0.194639 0.0873583
-0.157373 0.229407 0.133314
-0.167551 0.249692 0.147279
-0.173673 0.245556 0.179372
-0.182626 0.194113 0.239536
-0.175649 0.166034 0.271293
-0.177153 0.0863574 0.262154
-0.179492 0.0263758 0.233988
-0.17504 0.0420285 0.186361
-0.174435 0.0167601 0.154314
-0.160731 0.0251773 0.0821842
-0.141373 0.0273236 0.0246994
0.0729532 -0.150834 0.0186632
0.0630339 -0.119304 -0.00468706
0.0511347 -0.0759789 -0.0287431
0.0438124 -0.0423389 -0.0407684
0.0220483 -0.00471697 -0.0904193
0.00224984 0.0491693 -0.0766463
-0.0188353 0.110382 -0.0336374
-0.0359282 0.152735 0.000984384
-0.0614788 0.166963 0.0432841
-0.0798331 0.195877 0.0906894
-0.0961391 0.226257 0.138624
-0.110245 0.245835 0.163894
-0.121186 0.240454 0.203084
-0.13701 0.186374 0.264815
-0.134972 0.154213 0.28846
-0.143203 0.0714965 0.272886
-0.151553 0.0106218 0.236811
-0.155825 0.0290694 0.181544
-0.154959 0.00680994 0.140503
-0.14274 0.0200825 0.0621302
-0.124016 0.0260399 0.00094614
0.111398 -0.130712 -0.0372122
0.112667 -0.0990909 -0.0543284
0.11484 -0.0557019 -0.0722769
0.116141 -0.0208731 -0.0835536
0.11583 0.0165781 -0.13403
0.109369 0.0698847 -0.124183
0.0974455 0.128377 -0.0870387
0.0829833 0.165373 -0.0495066
0.0625888 0.176219 -0.0139333
0.0449489 0.197774 0.0356985
0.0282718 0.219777 0.0873274
0.0116283 0.23583 0.124514
-0.00378884 0.227532 0.170374
-0.0276046 0.170331 0.238704
-0.0318609 0.135297 0.257438
-0.0481202 0.0513188 0.24148
-0.063744 -0.00899618 0.205497
-0.0789218 0.0109055 0.155802
-0.0801829 -0.00659142 0.108702
-0.0747885 0.0117599 0.0297133
-0.0628341 0.0222414 -0.0318849
0.124767 -0.112696 -0.0773025
0.133984 -0.0822047 -0.0847038
0.146776 -0.0395935 -0.0929247
0.154727 -0.00364865 -0.105002
0.172984 0.0358076 -0.155112
0.178818 0.0891629 -0.152147
0.176521 0.145056 -0.122803
0.166659 0.177016 -0.0871471
0.153434 0.18332 -0.0625519
0.139246 0.196072 -0.0116395
0.124883 0.207969 0.0457689
0.108889 0.218892 0.0921408
0.0917575 0.206884 0.143097
0.0645255 0.146415 0.21315
0.0549402 0.111098 0.231427
0.0333821 0.0295542 0.215083
0.0132724 -0.0266132 0.179828
-0.00876923 -0.00323789 0.136942
-0.0114835 -0.0150058 0.0887905
-0.0113479 0.00895551 0.0136162
-0.00574786 0.0234261 -0.0465884
0.0735632 -0.0872826 -0.0833079
0.0829832 -0.0592793 -0.0751494
0.0979675 -0.0180204 -0.066535
0.108128 0.0189155 -0.0808664
0.133489 0.0629022 -0.111366
0.144885 0.117026 -0.11637
0.148685 0.170025 -0.0991582
0.144245 0.195818 -0.0668194
0.137366 0.195424 -0.0485322
0.128645 0.195719 0.00805658
0.119396 0.193286 0.0784637
0.109361 0.196769 0.126759
0.0960757 0.180357 0.174243
0.0762005 0.11764 0.225401
0.0651379 0.0845925 0.243823
0.0474511 0.00994094 0.224564
0.0319581 -0.0378749 0.190476
0.0166798 -0.00939981 0.151658
0.0152405 -0.0140962 0.108208
0.0157949 0.0152476 0.0445305
0.0190642 0.0333833 -0.00937892
0.0512275 -0.0812394 -0.0976738
0.0601966 -0.0527884 -0.0838395
0.0764984 -0.0103889 -0.0694239
0.0874025 0.02765 -0.0826518
0.118849 0.0733344 -0.116914
0.135706 0.128216 -0.127907
0.14545 0.180515 -0.118259
0.146456 0.20468 -0.0880774
0.145326 0.200349 -0.0772732
0.140885 0.194305 -0.0228866
0.135447 0.184552 0.0482324
0.129132 0.182505 0.0977596
0.117691 0.162354 0.144635
0.10009 0.0991868 0.194381
0.0871941 0.0683581 0.210662
0.0696675 -0.000672286 0.188919
0.0547571 -0.0416528 0.154379
0.0400125 -0.00796047 0.120473
0.0389044 -0.00821016 0.0798263
0.0387483 0.0229572 0.0225019
0.0403349 0.0407484 -0.0262941
0.00227344 -0.0692994 -0.137931
0.00686872 -0.0423018 -0.123673
0.0184865 -0.00162096 -0.105609
0.0268086 0.0352656 -0.1141
0.0547102 0.0832289 -0.150159
0.0714728 0.137981 -0.165097
0.0825485 0.188825 -0.163052
0.0876371 0.210338 -0.133952
0.0897821 0.201558 -0.132555
0.0896884 0.187464 -0.0783949
0.0883388 0.168303 -0.00526065
0.0870073 0.160257 0.0413162
0.0801838 0.136979 0.0819252
0.0704606 0.0756618 0.122166
0.0586438 0.0486505 0.133693
0.0459367 -0.0114835 0.108643
0.037155 -0.0438708 0.0746065
0.0308541 -0.00593572 0.0538165
0.0308793 -0.0022858 0.0144763
0.0334721 0.0305343 -0.0277372
0.0362784 0.0490374 -0.062315
-0.028394 -0.0613823 -0.160689
-0.0272934 -0.0366424 -0.150824
-0.0205475 0.00122148 -0.134506
-0.0154032 0.0362671 -0.137434
0.00488421 0.0847603 -0.175647
0.0177604 0.137737 -0.19167
0.0270339 0.185767 -0.194073
0.033639 0.204789 -0.165381
0.0364469 0.193407 -0.169364
0.0387881 0.174095 -0.116449
0.039835 0.148643 -0.0437587
0.0409648 0.136618 -0.00467883
0.0367892 0.111721 0.0272212
0.0320241 0.0536844 0.0557499
0.0218974 0.0302656 0.0611621
0.0140519 -0.0208844 0.0338466
0.0108854 -0.0457016 0.000186282
0.0119598 -0.005703 -0.0107442
0.0135971 0.000214273 -0.0470089
0.0186501 0.0335896 -0.0749899
0.022753 0.0526979 -0.0964075
-0.193456 -0.346017 0.0339871
-0.192716 -0.363585 0.0208084
-0.178373 -0.354435 0.00527008
-0.161589 -0.343108 -0.00211162
-0.127684 -0.310177 -0.0317966
-0.101867 -0.271126 -0.0118316
-0.0787789 -0.22242 0.0268733
-0.0677737 -0.15525 0.0489827
-0.0405061 -0.132848 0.0576366
-0.0258072 -0.0757998 0.0581078
-0.0132984 -0.0162525 0.049503
0.011909 0.00632242 0.0679917
0.0398078 0.00855908 0.0991087
0.0817644 -0.00802614 0.157145
0.0929246 0.00150479 0.181649
0.110041 0.000464931 0.18676
0.12089 0.0129465 0.182592
0.128526 0.0454188 0.1711
0.130025 0.0575234 0.163926
0.127392 0.0496052 0.12072
0.121065 0.0285301 0.0765428
-0.249312 -0.377719 0.0280617
-0.252712 -0.398088 0.0255406
-0.241664 -0.387386 0.0207419
-0.226847 -0.373122 0.0119342
-0.195253 -0.335869 -0.017308
-0.17156 -0.291656 -0.00342623
-0.148992 -0.237026 0.0299134
-0.135891 -0.164736 0.0518106
-0.106778 -0.140288 0.0509923
-0.0896785 -0.0776068 0.0520367
-0.0753354 -0.0123263 0.0465188
-0.0462385 0.0131722 0.0670722
-0.0140047 0.0156681 0.0986596
0.0373892 -0.00356625 0.156107
0.0516503 0.00481533 0.181608
0.0768447 0.000687914 0.187889
0.0965391 0.012552 0.190991
0.116692 0.0481572 0.195647
0.12187 0.0614187 0.192801
0.124291 0.0532323 0.153864
0.120531 0.0308193 0.107239
-0.279143 -0.402455 0.0150495
-0.286164 -0.422971 0.0214307
-0.280676 -0.409453 0.0258179
-0.270533 -0.39125 0.0159955
-0.247202 -0.349865 -0.0150204
-0.23024 -0.301495 -0.00953869
-0.211617 -0.242616 0.0151317
-0.197812 -0.168884 0.037455
-0.171374 -0.145433 0.0275372
-0.154599 -0.0809394 0.0322327
-0.141178 -0.0134329 0.0344793
-0.112158 0.0137386 0.059636
-0.0802114 0.0163165 0.0913411
-0.025434 -0.00427579 0.142262
-0.0108473 0.00231123 0.165893
0.0191257 -0.00462694 0.168972
0.0450061 0.00689403 0.174617
0.0760641 0.0470113 0.193734
0.0856283 0.0613061 0.194497
0.0949163 0.0544675 0.165418
0.0962021 0.0321546 0.123739
-0.274867 -0.413458 0.0064236
-0.284386 -0.433615 0.0117592
-0.28443 -0.41826 0.0142568
-0.279998 -0.396905 0.000764112
-0.268023 -0.354134 -0.0305932
-0.258661 -0.304311 -0.0301378
-0.245326 -0.24476 -0.0126941
-0.231265 -0.172067 0.00815689
-0.205906 -0.152317 -0.0010247
-0.189066 -0.0886794 0.00913984
-0.176729 -0.0211582 0.0200701
-0.151142 0.00436656 0.0502531
-0.122748 0.00632111 0.0815722
-0.0701116 -0.0142128 0.125661
-0.0567625 -0.00659496 0.145575
-0.0251485 -0.012752 0.146457
0.0038073 0.000471363 0.150615
0.0414366 0.0437647 0.172165
0.0540575 0.0600008 0.178433
0.0683242 0.0536372 0.160401
0.0740087 0.031211 0.128935
-0.234618 -0.426919 -0.0459598
-0.240705 -0.439354 -0.0391063
-0.241637 -0.415538 -0.0322515
-0.241325 -0.389369 -0.0467473
-0.235654 -0.341332 -0.097622
-0.232181 -0.286442 -0.111493
-0.223227 -0.222817 -0.107291
-0.207671 -0.152221 -0.0835063
-0.185365 -0.137471 -0.110779
-0.168902 -0.0799822 -0.0887305
-0.159229 -0.018598 -0.056373
-0.138671 0.00668436 -0.0170018
-0.116762 0.0082338 0.0176018
-0.0721799 -0.0125072 0.0561895
-0.0630043 -0.0096208 0.0746639
-0.0357508 -0.0224821 0.0651681
-0.00928369 -0.0138749 0.0630775
0.0272691 0.0354604 0.101564
0.0386691 0.0483128 0.106331
0.0522755 0.0447391 0.105126
0.0569941 0.0256995 0.0888765
-0.225901 -0.426916 -0.032953
-0.238182 -0.433385 -0.0280008
-0.249372 -0.404189 -0.0220533
-0.257657 -0.374472 -0.0413414
-0.269439 -0.323848 -0.100724
-0.277522 -0.266177 -0.121662
-0.277307 -0.20065 -0.12133
-0.263166 -0.132623 -0.0999787
-0.246263 -0.122923 -0.125092
-0.230496 -0.0717702 -0.091669
-0.221917 -0.0162707 -0.0410798
-0.203752 0.00716408 0.000665652
-0.184559 0.00808063 0.0347593
-0.142951 -0.0129512 0.0626736
-0.134855 -0.0113302 0.0826283
-0.107298 -0.0278889 0.0633258
-0.0793524 -0.0224753 0.0534808
-0.0376309 0.0291958 0.0889326
-0.0250633 0.03909 0.0970879
-0.00710068 0.0369096 0.10446
0.00291238 0.0200658 0.0973366
-0.226109 -0.421301 -0.00302891
-0.247892 -0.421408 0.00106169
-0.271341 -0.386389 0.0050301
-0.28953 -0.353349 -0.0196833
-0.322383 -0.300589 -0.0838247
-0.344198 -0.239625 -0.109841
-0.354309 -0.171101 -0.113909
-0.342106 -0.103766 -0.0969361
-0.331691 -0.0978786 -0.119231
-0.317065 -0.0525225 -0.0789516
-0.308585 -0.00264951 -0.0139589
-0.291527 0.0197335 0.0269885
-0.273597 0.0205786 0.0617098
-0.233544 -0.000790849 0.0850063
-0.224523 -0.000145092 0.109754
-0.194986 -0.0213077 0.083874
-0.16521 -0.0204765 0.0674392
-0.118253 0.0314813 0.095263
-0.105089 0.0362382 0.107688
-0.0825447 0.0331127 0.117525
-0.0658481 0.0166505 0.113772
-0.190693 -0.40327 -0.000256111
-0.217414 -0.399589 -0.000407659
-0.248515 -0.362937 0.000305142
-0.272679 -0.329487 -0.024789
-0.317847 -0.28068 -0.0911401
-0.348307 -0.220825 -0.119528
-0.364645 -0.151963 -0.128847
-0.354699 -0.085913 -0.121309
-0.35072 -0.0809701 -0.147738
-0.338683 -0.0380722 -0.111871
-0.331765 0.00969031 -0.0492905
-0.316517 0.0333793 -0.00547203
-0.300897 0.037249 0.0345875
-0.266452 0.0208758 0.0629354
-0.257294 0.0216017 0.0952272
-0.231402 -0.00146464 0.074094
-0.206088 -0.00515662 0.0591692
-0.164285 0.0414807 0.0856354
-0.15437 0.0392317 0.0999121
-0.133117 0.031392 0.110812
-0.114703 0.0120441 0.108838
-0.156628 -0.394582 -0.0194275
-0.188901 -0.384519 -0.028215
-0.229232 -0.34284 -0.035361
-0.259291 -0.307049 -0.0551116
-0.321598 -0.253927 -0.143866
-0.362422 -0.187673 -0.17501
-0.387902 -0.111237 -0.186617
-0.382473 -0.0411226 -0.179951
-0.385068 -0.0385321 -0.217958
-0.374881 -0.00141847 -0.1848
-0.367691 0.0395192 -0.119827
-0.356201 0.0652291 -0.0832508
-0.343719 0.0704434 -0.0395814
-0.31622 0.0507134 0.0113001
-0.305499 0.0518003 0.0497965
-0.282107 0.021603 0.035205
-0.25905 0.0110292 0.0196154
-0.218511 0.0578464 0.044838
-0.211596 0.0500257 0.0506106
-0.190062 0.043062 0.0509218
-0.169016 0.0245104 0.0439462
-0.0962949 -0.37602 0.00697152
-0.129365 -0.36248 -0.00804944
-0.172856 -0.320636 -0.0224542
-0.204769 -0.286494 -0.0409875
-0.27497 -0.236102 -0.131975
-0.321513 -0.169904 -0.156679
-0.353326 -0.0919516 -0.161095
-0.354034 -0.0205351 -0.153328
-0.364992 -0.0187837 -0.185857
-0.360325 0.015775 -0.156067
-0.35656 0.0538121 -0.0964807
-0.350349 0.0832891 -0.0690936
-0.342496 0.0919847 -0.0260489
-0.324769 0.0723081 0.0342577
-0.313879 0.0737333 0.078571
-0.296668 0.038274 0.0680582
-0.280681 0.0210664 0.0507302
-0.249744 0.0644571 0.0628801
-0.24666 0.0518471 0.0617802
-0.227962 0.0450177 0.0475404
-0.206781 0.0268082 0.0315344
-0.0269662 -0.353292 0.0526633
-0.0577186 -0.336078 0.0304398
-0.100183 -0.294561 0.00866009
-0.130468 -0.263217 -0.0101875
-0.202268 -0.216954 -0.0958184
-0.250821 -0.152393 -0.107361
-0.28676 -0.0747694 -0.0953467
-0.294485 -0.00316822 -0.0828558
-0.314871 -0.00246165 -0.0976215
-0.318274 0.0300311 -0.0665925
-0.320619 0.0656892 -0.0107193
-0.321379 0.098687 0.00468833
-0.319588 0.109883 0.0427721
-0.313133 0.0885882 0.103489
-0.303032 0.0884774 0.151663
-0.293202 0.0462334 0.139512
-0.285607 0.0222689 0.115728
-0.266786 0.0631762 0.105506
-0.267023 0.0478776 0.0974666
-0.252122 0.0429378 0.0648419
-0.231845 0.0265765 0.0370133
0.0118152 -0.299189 0.0515121
-0.0143161 -0.278202 0.025912
-0.0510465 -0.239694 9.81527e-05
-0.0775713 -0.212899 -0.0180335
-0.138744 -0.178928 -0.0944615
-0.181688 -0.123177 -0.0935509
-0.215299 -0.0533041 -0.0684847
-0.227194 0.0111731 -0.0537983
-0.249154 0.0114347 -0.056073
-0.256294 0.0421643 -0.0273285
-0.261297 0.0762589 0.0189814
-0.263779 0.113094 0.0295064
-0.262612 0.127605 0.0670243
-0.260102 0.108156 0.137395
-0.249164 0.101327 0.186583
-0.244128 0.0494675 0.180028
-0.242669 0.0145309 0.156522
-0.234175 0.045797 0.135084
-0.237189 0.0249634 0.119735
-0.226268 0.0197144 0.0707068
-0.208278 0.00534976 0.0309731
0.036533 -0.249356 0.0450067
0.0146304 -0.224139 0.0173303
-0.0155646 -0.18677 -0.0106273
-0.0374928 -0.161579 -0.0281255
-0.0872691 -0.13549 -0.0963793
-0.124509 -0.0860693 -0.0849284
-0.156358 -0.0226066 -0.0468289
-0.173067 0.0351592 -0.0262951
-0.198362 0.0350425 -0.0115026
-0.210924 0.0629744 0.0212717
-0.220582 0.0942219 0.0639573
-0.225584 0.133518 0.0734968
-0.22558 0.149463 0.110676
-0.226264 0.129195 0.185991
-0.214897 0.114278 0.232349
-0.213172 0.0521549 0.225461
-0.215315 0.00649511 0.198754
-0.213516 0.0289376 0.165103
-0.216387 0.00387925 0.139779
-0.206325 0.000240239 0.0742623
-0.188096 -0.01061 0.0230507
0.0350196 -0.187473 0.0411377
0.0162494 -0.158725 0.0191624
-0.00793283 -0.122063 -0.00435264
-0.0255212 -0.0955567 -0.0186843
-0.0658376 -0.0746939 -0.0745521
-0.0991693 -0.0293454 -0.0601618
-0.130543 0.0288177 -0.0176829
-0.15194 0.0769767 0.00945678
-0.181218 0.0777411 0.0426676
-0.198987 0.10055 0.0837816
-0.212494 0.125455 0.129354
-0.219293 0.163891 0.140645
-0.219922 0.178418 0.176092
-0.221231 0.154235 0.24925
-0.208923 0.128603 0.288881
-0.206966 0.0545895 0.28511
-0.208465 -0.0028725 0.260244
-0.205813 0.00941698 0.214727
-0.205777 -0.0192293 0.179604
-0.192391 -0.0200251 0.0988555
-0.171287 -0.0252682 0.0334632
0.0620637 -0.182481 0.00814255
0.0506209 -0.150544 -0.014456
0.0368091 -0.111296 -0.0369057
0.0270063 -0.0827055 -0.0471671
0.00141056 -0.0591603 -0.101298
-0.0238011 -0.0128232 -0.0847782
-0.0517642 0.0446421 -0.0369344
-0.0762781 0.0910501 8.04531e-05
-0.110973 0.0904397 0.0409778
-0.135623 0.110042 0.0890261
-0.155777 0.130891 0.137894
-0.165412 0.168911 0.161825
-0.16947 0.182189 0.204728
-0.17568 0.154678 0.278962
-0.167439 0.124205 0.308972
-0.171236 0.0464738 0.296811
-0.178184 -0.0120998 0.261683
-0.184479 0.00337174 0.20575
-0.184406 -0.0221079 0.15975
-0.173139 -0.0179154 0.0711166
-0.153321 -0.0196276 0.00142954
0.10141 -0.163654 -0.0530005
0.101614 -0.131199 -0.0690351
0.102654 -0.0903716 -0.0849661
0.101832 -0.0593364 -0.0940233
0.0986832 -0.0324502 -0.150445
0.0869714 0.0156869 -0.139147
0.067593 0.0722911 -0.098411
0.0449627 0.11385 -0.0579293
0.0140179 0.111656 -0.0239209
-0.0108586 0.124642 0.0279447
-0.0317538 0.137614 0.0823554
-0.0434185 0.171081 0.120067
-0.0511445 0.180352 0.170192
-0.0644079 0.147896 0.250225
-0.0618827 0.113775 0.273984
-0.0730605 0.0340969 0.259813
-0.0868748 -0.0240189 0.223141
-0.1036 -0.0062035 0.17144
-0.105996 -0.0262374 0.118199
-0.102106 -0.0160519 0.028781
-0.089745 -0.013023 -0.0408899
0.114266 -0.146203 -0.0939918
0.122641 -0.114407 -0.0992496
0.134752 -0.0729313 -0.104337
0.140673 -0.0397228 -0.113951
0.157478 -0.00713752 -0.170863
0.15858 0.0432447 -0.167936
0.149054 0.0987414 -0.136561
0.130995 0.135116 -0.0984026
0.107139 0.129802 -0.0759326
0.0857225 0.13418 -0.0214986
0.0673777 0.137167 0.0405867
0.0572667 0.164098 0.0887207
0.0487795 0.168323 0.143819
0.0331255 0.130932 0.223522
0.030904 0.0962589 0.245731
0.0148595 0.019027 0.229331
-0.00311853 -0.0343043 0.191713
-0.0263537 -0.0115129 0.145951
-0.0304513 -0.0248259 0.0916396
-0.0321906 -0.00788568 0.00683232
-0.0270246 -0.000517793 -0.0604982
0.0595379 -0.121678 -0.0945392
0.0675464 -0.0912818 -0.0820937
0.0816434 -0.0486349 -0.067759
0.0894464 -0.013083 -0.0797455
0.114798 0.030566 -0.113542
0.122333 0.0852069 -0.119311
0.119896 0.140005 -0.101485
0.107819 0.169482 -0.0677558
0.0918547 0.159797 -0.0513173
0.0769827 0.152221 0.010112
0.0649166 0.141267 0.0873327
0.0616423 0.157633 0.13703
0.0577128 0.154622 0.18681
0.0499269 0.111957 0.24178
0.0467621 0.0792732 0.262895
0.0350818 0.00910141 0.240823
0.0223736 -0.0347776 0.202793
0.00707167 -0.00414445 0.160726
0.00438812 -0.00876329 0.112579
0.00349963 0.0159502 0.0419308
0.00615546 0.0281847 -0.0170128
0.0309491 -0.113538 -0.106496
0.0375682 -0.082498 -0.0874631
0.0522842 -0.0382116 -0.066705
0.0605298 -0.00102746 -0.0775398
0.0924028 0.0449081 -0.116194
0.105992 0.100428 -0.129486
0.110329 0.154287 -0.121058
0.105072 0.181751 -0.0905196
0.09524 0.167881 -0.0827101
0.0851963 0.153439 -0.0234315
0.0773048 0.134796 0.0551564
0.0785927 0.145199 0.106391
0.0768725 0.138224 0.155308
0.0718689 0.0949085 0.207718
0.0662853 0.0649022 0.225723
0.0549287 0.00111882 0.199853
0.0432241 -0.0348711 0.160568
0.0292485 0.00177915 0.123446
0.0272431 0.00205289 0.0789554
0.0261297 0.0285886 0.0158594
0.0272249 0.0400202 -0.0369325
-0.0236463 -0.0996796 -0.149832
-0.0228245 -0.0695241 -0.130182
-0.0140049 -0.0259269 -0.105044
-0.00885 0.0105179 -0.1106
0.0195502 0.061219 -0.150231
0.0337806 0.117602 -0.16792
0.040726 0.170617 -0.168467
0.0411956 0.194952 -0.139924
0.0360313 0.177575 -0.143363
0.0314291 0.155335 -0.0851825
0.0282021 0.127552 -0.00506076
0.0344256 0.130078 0.0427475
0.0366732 0.118297 0.0842555
0.0387629 0.0750299 0.1251
0.0333483 0.0491506 0.136953
0.0264116 -0.00529335 0.10686
0.0212678 -0.0319118 0.0681068
0.0170817 0.0103563 0.0464859
0.0169781 0.015105 0.0044936
0.0199813 0.0444148 -0.0402995
0.0232974 0.0572101 -0.0759898
-0.0579098 -0.0895485 -0.174446
-0.0616448 -0.0612906 -0.159688
-0.0586812 -0.0198092 -0.136481
-0.057005 0.0151057 -0.136359
-0.03695 0.0681519 -0.177042
-0.0264614 0.123394 -0.19563
-0.020732 0.173855 -0.201105
-0.0175801 0.195313 -0.173217
-0.0212186 0.176541 -0.182995
-0.0227139 0.149773 -0.127132
-0.0233891 0.116433 -0.0484576
-0.0154593 0.113254 -0.00912183
-0.0117755 0.0980963 0.0225095
-0.00609585 0.0559981 0.0499469
-0.0109161 0.0339212 0.0545966
-0.0134947 -0.0114231 0.0220422
-0.0128317 -0.0301866 -0.0158438
-0.00834315 0.0148962 -0.0254469
-0.00609291 0.022237 -0.0633021
0.000823637 0.0530724 -0.0911346
0.00674026 0.0672925 -0.111316
-0.219178 -0.338234 0.0539293
-0.215497 -0.359216 0.0389705
-0.196543 -0.357184 0.0182148
-0.176594 -0.347744 0.00493116
-0.131991 -0.334579 -0.0377242
-0.0980353 -0.30858 -0.0205517
-0.0657248 -0.272348 0.0210358
-0.0473875 -0.211707 0.0462197
-0.00965366 -0.210136 0.0568442
0.0127273 -0.166537 0.058187
0.0315103 -0.118159 0.0491484
0.0641035 -0.0880013 0.067746
0.0973519 -0.0740702 0.1002
0.146077 -0.0721903 0.163728
0.156814 -0.0556896 0.18821
0.175325 -0.0456659 0.19151
0.187056 -0.0265889 0.184755
0.193084 0.0020215 0.169792
0.193025 0.0134697 0.160949
0.185756 -0.00324383 0.112886
0.17231 -0.0310755 0.0654412
-0.277566 -0.369 0.0499289
-0.277936 -0.39308 0.0456129
-0.261865 -0.390579 0.0350715
-0.24334 -0.378778 0.0191565
-0.199452 -0.364341 -0.0247911
-0.166092 -0.335307 -0.0145799
-0.13257 -0.295314 0.0218599
-0.110266 -0.231211 0.048604
-0.069192 -0.231115 0.050602
-0.0434591 -0.184666 0.0544935
-0.022584 -0.132876 0.0503812
0.0136375 -0.099226 0.0716697
0.0503528 -0.0834894 0.104134
0.107525 -0.0805649 0.165017
0.120228 -0.0638482 0.189719
0.146178 -0.0547021 0.192579
0.166723 -0.0347877 0.192336
0.185584 -0.00289975 0.193949
0.189667 0.00945868 0.189605
0.187665 -0.00859424 0.146022
0.176433 -0.0383752 0.0959156
-0.307563 -0.392799 0.0359207
-0.311591 -0.417249 0.0403312
-0.301282 -0.41303 0.03893
-0.287199 -0.397881 0.0217626
-0.251003 -0.382125 -0.0242785
-0.22362 -0.350921 -0.0227639
-0.192884 -0.308554 0.00522982
-0.168483 -0.244573 0.0341282
-0.12958 -0.248972 0.0280925
-0.103975 -0.203591 0.0380806
-0.0845962 -0.152014 0.0440946
-0.0494122 -0.11632 0.0708724
-0.0145498 -0.0991466 0.102811
0.0442475 -0.0941239 0.154245
0.0555836 -0.0779958 0.175538
0.0851578 -0.0695389 0.172892
0.111375 -0.0483768 0.174074
0.141219 -0.0114388 0.19061
0.150157 0.00204122 0.190343
0.155804 -0.0153662 0.157662
0.150212 -0.0455465 0.113053
-0.300537 -0.402787 0.0235986
-0.306967 -0.426935 0.0266091
-0.302408 -0.421407 0.0236055
-0.293999 -0.403625 0.00320927
-0.269601 -0.387905 -0.0415331
-0.249774 -0.356371 -0.0444306
-0.223912 -0.314612 -0.0234171
-0.198541 -0.253081 0.00447835
-0.160094 -0.263258 0.000363669
-0.134145 -0.2204 0.0173405
-0.116236 -0.170088 0.0335154
-0.085864 -0.136515 0.0659704
-0.0563119 -0.119619 0.0970609
-0.00175056 -0.113067 0.139803
0.00675235 -0.0945242 0.155678
0.0365054 -0.0838561 0.149246
0.0649652 -0.0599667 0.148098
0.101108 -0.0191888 0.167174
0.113315 -0.00311361 0.173144
0.124645 -0.0198484 0.152942
0.124414 -0.0499792 0.119847
-0.263272 -0.416205 -0.0351036
-0.2671 -0.432965 -0.0301143
-0.264215 -0.420286 -0.0270819
-0.259951 -0.398251 -0.0474856
-0.243148 -0.380543 -0.111192
-0.229851 -0.346041 -0.128727
-0.209257 -0.301934 -0.121816
-0.18222 -0.243162 -0.0908729