# vtk DataFile Version 2.0
Func
ASCII
DATASET RECTILINEAR_GRID
DIMENSIONS 21 21 21
X_COORDINATES 21 double
-4.7619
-4.28571
-3.80952
-3.33333
-2.85714
-2.38095
-1.90476
-1.42857
-0.952381
-0.47619
0
0.47619
0.952381
1.42857
1.90476
2.38095
2.85714
3.33333
3.80952
4.28571
4.7619
Y_COORDINATES 21 double
-4.7619
-4.28571
-3.80952
-3.33333
-2.85714
-2.38095
-1.90476
-1.42857
-0.952381
-0.47619
0
0.47619
0.952381
1.42857
1.90476
2.38095
2.85714
3.33333
3.80952
4.28571
4.7619
Z_COORDINATES 21 double
-4.7619
-4.28571
-3.80952
-3.33333
-2.85714
-2.38095
-1.90476
-1.42857
-0.952381
-0.47619
0
0.47619
0.952381
1.42857
1.90476
2.38095
2.85714
3.33333
3.80952
4.28571
4.7619
POINT_DATA 9261
SCALARS data double 3
LOOKUP_TABLE default
0.0085248 0.0344983 0.158074
-0.018596 0.0519719 0.172769
-0.0527951 0.0704725 0.148956
-0.0895756 0.0893001 0.0896009
-0.12413 0.104704 0.00914795
-0.151893 0.116588 -0.0687549
-0.17147 0.119545 -0.116265
-0.18115 0.110398 -0.123335
-0.181857 0.0852725 -0.095203
-0.174596 0.041283 -0.0450867
-0.158403 -0.0204049 0.0045686
-0.132517 -0.0935639 0.0360137
-0.0973383 -0.166921 0.0424887
-0.0546232 -0.225632 0.030725
-0.0090901 -0.256888 0.014282
0.0316111 -0.252359 0.00928763
0.0629739 -0.213235 0.0246918
0.081166 -0.15112 0.0538721
0.0854859 -0.0874342 0.0823326
0.0768128 -0.0344854 0.0983135
0.0585639 -0.00160413 0.0951272
0.0240223 0.0244551 0.195727
-0.00692586 0.0484085 0.209694
-0.0471789 0.0795599 0.175065
-0.089559 0.114596 0.0967985
-0.127237 0.146659 -0.00657157
-0.155187 0.170899 -0.107289
-0.171534 0.177674 -0.168932
-0.175022 0.162391 -0.177836
-0.167339 0.122434 -0.140626
-0.151552 0.0577716 -0.0746489
-0.127779 -0.0268774 -0.00827729
-0.0958936 -0.121613 0.0353028
-0.0567503 -0.212161 0.0468144
-0.0120763 -0.28148 0.0342409
0.0329012 -0.316227 0.0147538
0.0705126 -0.308582 0.00935791
0.0965579 -0.261378 0.0301538
0.108016 -0.188191 0.0675109
0.104525 -0.11229 0.104931
0.0878631 -0.0485201 0.127102
0.0625918 -0.00738721 0.12446
0.0387553 0.00628641 0.213021
0.00934901 0.0388406 0.223487
-0.0302408 0.0866856 0.179926
-0.0707654 0.142983 0.0887315
-0.10456 0.196307 -0.0290322
-0.126211 0.23548 -0.143887
-0.1337 0.246257 -0.213708
-0.126569 0.222834 -0.222689
-0.108152 0.165127 -0.177728
-0.0834674 0.0775414 -0.0996027
-0.0539752 -0.0304473 -0.020885
-0.0204142 -0.144912 0.0312551
0.0160839 -0.249153 0.0456588
0.0542127 -0.325447 0.03129
0.0893024 -0.361268 0.00815825
0.114482 -0.350444 0.00186809
0.12749 -0.297721 0.0269964
0.126928 -0.217919 0.0712793
0.112912 -0.134148 0.117269
0.0879879 -0.0627064 0.146543
0.0574314 -0.0147935 0.146319
0.0430967 -0.0157249 0.205846
0.0184987 0.0267479 0.212691
-0.0147829 0.0931701 0.165406
-0.0470114 0.171857 0.070918
-0.0699757 0.247145 -0.0506978
-0.0786118 0.301177 -0.167694
-0.0716707 0.315427 -0.237647
-0.0500215 0.283324 -0.243707
-0.0195014 0.208091 -0.192753
0.0131614 0.0992751 -0.107387
0.0450617 -0.0286149 -0.0227311
0.0748275 -0.157959 0.0317691
0.101683 -0.270573 0.0439979
0.125569 -0.349421 0.0239526
0.143336 -0.384027 -0.00603329
0.150183 -0.37094 -0.0163347
0.14588 -0.316597 0.0100348
0.131171 -0.236002 0.0594958
0.106677 -0.150161 0.113281
0.0755202 -0.0761113 0.150324
0.0424224 -0.0244892 0.154944
0.0251963 -0.0372511 0.178678
0.00651888 0.015125 0.184711
-0.0171477 0.0987947 0.142041
-0.0362429 0.197373 0.0551274
-0.043742 0.290672 -0.056061
-0.034877 0.356381 -0.162017
-0.010032 0.372434 -0.2239
0.0274255 0.332346 -0.2256
0.0695684 0.242868 -0.172873
0.108319 0.11848 -0.0882926
0.139381 -0.0219951 -0.00712878
0.16103 -0.158359 0.0410641
0.173475 -0.272233 0.044261
0.178577 -0.348592 0.0134281
0.175634 -0.379937 -0.0273756
0.162536 -0.366007 -0.0459256
0.141455 -0.314442 -0.0231575
0.114664 -0.239006 0.0279075
0.0833944 -0.157801 0.0881406
0.0502912 -0.086898 0.133425
0.0188977 -0.0355963 0.145664
-0.0223179 -0.0558295 0.134738
-0.0383597 0.00329955 0.143279
-0.053657 0.0990283 0.114569
-0.0590365 0.21091 0.049731
-0.0488883 0.315844 -0.0358333
-0.0202488 0.388102 -0.117466
0.0241319 0.404144 -0.164042
0.0780439 0.358187 -0.161007
0.131307 0.260232 -0.111891
0.174765 0.128766 -0.0372483
0.203024 -0.0143772 0.0305867
0.214435 -0.147925 0.064191
0.210865 -0.25473 0.0524984
0.196616 -0.322946 0.006795
0.174008 -0.348731 -0.0481415
0.144001 -0.335143 -0.0792475
0.110623 -0.290274 -0.0661561
0.0773293 -0.225862 -0.0194315
0.0451525 -0.155727 0.0431263
0.0157322 -0.0937116 0.0956828
-0.00906289 -0.0467847 0.11827
-0.0968497 -0.0684714 0.0921643
-0.115771 -0.00761721 0.109554
-0.127172 0.0916293 0.103195
-0.122322 0.206715 0.0694868
-0.0970409 0.313638 0.0174753
-0.0505404 0.385536 -0.0346817
0.0117563 0.399656 -0.0637835
0.0807985 0.351287 -0.0570285
0.14429 0.252903 -0.0156031
0.192121 0.125151 0.0436656
0.217981 -0.00917213 0.0926941
0.220549 -0.129595 0.107007
0.203651 -0.221515 0.0766595
0.174162 -0.276901 0.012818
0.137571 -0.295607 -0.0596698
0.0977288 -0.283353 -0.10776
0.0600189 -0.247964 -0.109906
0.0279797 -0.198433 -0.07283
0.00205503 -0.14406 -0.0120658
-0.0180568 -0.0952311 0.0456418
-0.0323648 -0.0562176 0.0791206
-0.184823 -0.0725945 0.0603265
-0.211192 -0.0166686 0.0919045
-0.223401 0.0753914 0.112774
-0.213062 0.181358 0.114114
-0.177114 0.278505 0.0973489
-0.117029 0.34213 0.0745534
-0.040784 0.352327 0.0619007
0.0402113 0.305932 0.0705846
0.111949 0.21642 0.101788
0.163624 0.104133 0.143503
0.188363 -0.0097197 0.172433
0.185417 -0.107497 0.167172
0.160516 -0.1782 0.118604
0.122797 -0.21767 0.0371807
0.0804974 -0.228761 -0.0529575
0.039561 -0.218786 -0.119678
0.0059197 -0.194234 -0.140374
-0.0176228 -0.1611 -0.117067
-0.0319149 -0.124663 -0.0630594
-0.039501 -0.0913281 -0.00450091
-0.0422588 -0.0621812 0.0373711
-0.268147 -0.0665773 0.0429007
-0.304171 -0.0216241 0.0903251
-0.320776 0.0525111 0.137617
-0.30971 0.136723 0.171035
-0.268653 0.212591 0.18543
-0.201034 0.260336 0.187391
-0.116729 0.264854 0.187395
-0.0286827 0.224742 0.195566
0.0481875 0.152644 0.215806
0.102794 0.0659599 0.24118
0.128174 -0.0182874 0.253159
0.124295 -0.087053 0.233066
0.0983396 -0.133488 0.172026
0.0608572 -0.15668 0.0789279
0.0217895 -0.161144 -0.0238872
-0.0119115 -0.154207 -0.106288
-0.0347098 -0.140241 -0.145174
-0.045208 -0.122287 -0.137874
-0.0457246 -0.102362 -0.0952564
-0.0409 -0.0834479 -0.0417533
-0.0340012 -0.0642144 0.00265151
-0.329816 -0.0509667 0.0392816
-0.37532 -0.0220662 0.0994891
-0.398667 0.0258772 0.166105
-0.391518 0.0791445 0.222331
-0.351842 0.125755 0.257966
-0.284264 0.152715 0.275042
-0.19949 0.150812 0.28106
-0.110842 0.120335 0.286064
-0.0330731 0.0713216 0.296833
0.0230087 0.0160597 0.310999
0.0508141 -0.0344718 0.313971
0.0510073 -0.072785 0.288837
0.0314284 -0.0960397 0.226052
0.00284363 -0.105465 0.131938
-0.0245789 -0.105693 0.0257577
-0.0441875 -0.10251 -0.0653144
-0.0516307 -0.0976068 -0.118342
-0.0472453 -0.0915007 -0.127063
-0.0348439 -0.083971 -0.0995988
-0.0205022 -0.0755113 -0.0571221
-0.00799685 -0.0636958 -0.0172034
-0.358312 -0.0262956 0.0412901
-0.410507 -0.0159653 0.107096
-0.441008 0.00151508 0.181366
-0.441241 0.0191575 0.246346
-0.409136 0.0325868 0.289383
-0.349502 0.0366706 0.309869
-0.272602 0.0283591 0.314799
-0.190864 0.00938009 0.31509
-0.11773 -0.0143773 0.320229
-0.0629744 -0.0372931 0.331171
-0.032282 -0.0555175 0.335868
-0.0243761 -0.0672804 0.317982
-0.0316545 -0.0729423 0.266398
-0.0444153 -0.0743141 0.184085
-0.053812 -0.0743709 0.0862559
-0.0547543 -0.0758971 -0.00353773
-0.0446729 -0.0776071 -0.063276
-0.0256734 -0.0781712 -0.0848191
-0.00287781 -0.0763833 -0.0736878
0.0170752 -0.071869 -0.0466814
0.030662 -0.062709 -0.0180537
-0.349712 0.00554549 0.0406296
-0.404634 -0.00195932 0.102487
-0.441502 -0.0143836 0.170888
-0.451559 -0.0316389 0.229145
-0.432493 -0.0504723 0.265012
-0.388198 -0.0680861 0.277522
-0.327283 -0.0818683 0.275006
-0.260079 -0.0891701 0.269962
-0.197696 -0.0892731 0.274074
-0.148067 -0.0839535 0.290108
-0.11548 -0.0766231 0.307012
-0.0981942 -0.0705823 0.307916
-0.0896582 -0.0680556 0.279486
-0.0823422 -0.0696384 0.220926
-0.0700106 -0.0748735 0.142867
-0.0501522 -0.0823342 0.0649087
-0.0223354 -0.0877458 0.00743629
0.00975667 -0.0887977 -0.0213593
0.0400364 -0.0846686 -0.0248074
0.0621296 -0.0761029 -0.0148608
0.073327 -0.0634596 -0.00200499
-0.305091 0.0412411 0.033597
-0.3584 0.0197474 0.0827351
-0.399881 -0.0174489 0.133464
-0.420851 -0.0637974 0.171636
-0.418602 -0.109451 0.187841
-0.395174 -0.144628 0.183038
-0.356572 -0.162203 0.168015
-0.310136 -0.15932 0.157238
-0.263936 -0.140705 0.163865
-0.223459 -0.115205 0.191124
-0.191296 -0.0926583 0.227514
-0.165434 -0.0801314 0.254791
-0.140948 -0.0801722 0.25716
-0.113147 -0.0905943 0.230165
-0.0790976 -0.106219 0.179908
-0.0393815 -0.120752 0.122092
0.00426493 -0.127244 0.0750095
0.0469412 -0.123225 0.0455228
0.0820259 -0.109427 0.031898
0.103978 -0.0895062 0.0267292
0.111126 -0.0674473 0.0231881
-0.227306 0.0760704 0.0236936
-0.274214 0.0463642 0.0548479
-0.317389 -0.00701868 0.0806378
-0.348377 -0.0727856 0.0903711
-0.363928 -0.136331 0.0788927
-0.363612 -0.182577 0.0505747
-0.350259 -0.201499 0.0193975
-0.32776 -0.190858 0.00191963
-0.300964 -0.1604 0.0119871
-0.2728 -0.124775 0.0523734
-0.244166 -0.0986652 0.11012
-0.213024 -0.0912196 0.165205
-0.176338 -0.103833 0.199601
-0.132338 -0.130442 0.205789
-0.0812689 -0.160519 0.185943
-0.0265868 -0.182881 0.152271
0.0281876 -0.188494 0.120828
0.0774621 -0.175424 0.0965763
0.114585 -0.146823 0.0787164
0.135047 -0.110423 0.0634291
0.137994 -0.0746622 0.0469142
-0.125577 0.102004 0.0172985
-0.162376 0.0700094 0.030466
-0.203608 0.0104386 0.0305281
-0.24171 -0.0623286 0.0100489
-0.272692 -0.131574 -0.031094
-0.293452 -0.17974 -0.0843652
-0.303487 -0.196238 -0.132742
-0.303505 -0.17991 -0.157872
-0.29552 -0.144525 -0.145891
-0.28043 -0.108631 -0.0950313
-0.25783 -0.0896136 -0.0200074
-0.22595 -0.0968438 0.0576124
-0.18361 -0.129347 0.118272
-0.131481 -0.176696 0.152412
-0.0721277 -0.223171 0.159309
-0.0109978 -0.253349 0.148337
0.0474314 -0.256968 0.133475
0.0975337 -0.233179 0.118034
0.13318 -0.187954 0.101557
0.150906 -0.133604 0.082504
0.150391 -0.0829379 0.0593515
-0.00703497 0.111185 0.0238511
-0.0300931 0.0821828 0.0243169
-0.0650128 0.0260874 0.00365135
-0.105258 -0.0417715 -0.0426945
-0.145968 -0.105 -0.110603
-0.181703 -0.145891 -0.187348
-0.209075 -0.154857 -0.252696
-0.226039 -0.133849 -0.286864
-0.232744 -0.0986617 -0.276635
-0.229157 -0.0696777 -0.221357
-0.214332 -0.0648047 -0.137248
-0.187007 -0.0920468 -0.0468449
-0.147553 -0.147343 0.0296212
-0.0981648 -0.216053 0.0816587
-0.0423214 -0.278143 0.106869
0.0140747 -0.315037 0.112693
0.0665968 -0.316176 0.111411
0.110265 -0.282161 0.105485
0.13998 -0.221943 0.0945485
0.153133 -0.152117 0.0780302
0.14967 -0.0885938 0.0552991
0.1169 0.104199 0.0481901
0.110522 0.0817179 0.0441204
0.0864192 0.0367741 0.0114159
0.0500941 -0.0172438 -0.0522935
0.00729088 -0.0654125 -0.139754
-0.0349968 -0.0924279 -0.235511
-0.0711839 -0.0908112 -0.315851
-0.0975062 -0.06554 -0.35999
-0.113011 -0.0340458 -0.355799
-0.118001 -0.0161193 -0.303582
-0.111718 -0.0283451 -0.220331
-0.0935389 -0.0762866 -0.128682
-0.0649455 -0.15273 -0.0485861
-0.0286487 -0.239641 0.00952356
0.0123769 -0.314114 0.0427051
0.0532566 -0.355834 0.0572078
0.0905405 -0.354791 0.0640465
0.120645 -0.313076 0.0657658
0.139976 -0.242312 0.0621566
0.146465 -0.162027 0.0523628
0.139997 -0.0901884 0.0359232
0.219098 0.084215 0.0802247
0.228467 0.0702229 0.0771861
0.216341 0.0408976 0.0408709
0.18769 0.00607632 -0.0287257
0.149164 -0.0221454 -0.123672
0.10804 -0.0319002 -0.228142
0.0713905 -0.0188495 -0.316725
0.0440795 0.00971301 -0.368472
0.0268311 0.0357981 -0.372469
0.0180505 0.0418862 -0.329876
0.0177268 0.013952 -0.256863
0.0256664 -0.0507538 -0.174624
0.0396481 -0.142461 -0.101572
0.0572033 -0.241136 -0.0472601
0.0768071 -0.32283 -0.0145767
0.0957584 -0.367003 0.00166211
0.112412 -0.364732 0.0111693
0.12514 -0.319393 0.017259
0.131928 -0.244469 0.0197925
0.131187 -0.160711 0.0172829
0.122484 -0.0865695 0.00926472
0.281699 0.0548487 0.106996
0.304126 0.048972 0.108783
0.30364 0.0357731 0.075936
0.285304 0.0214623 0.00939501
0.255596 0.0144911 -0.0819859
0.221729 0.0223349 -0.184841
0.190964 0.04607 -0.27344
0.167988 0.0763728 -0.328527
0.154197 0.0967136 -0.340027
0.14609 0.0925509 -0.309561
0.142347 0.0531838 -0.251358
0.141764 -0.021407 -0.184002
0.141539 -0.119852 -0.123551
0.139704 -0.221788 -0.078301
0.136494 -0.304177 -0.0508985
0.131849 -0.347801 -0.0371819
0.126463 -0.345163 -0.028856
0.120916 -0.300645 -0.0219935
0.11495 -0.228344 -0.0163609
0.107394 -0.148506 -0.0136115
0.0975957 -0.0782907 -0.0142762
0.29562 0.0224268 0.118961
0.324772 0.0225893 0.126354
0.332266 0.0229308 0.101558
0.323058 0.0264889 0.0451913
0.303342 0.0376361 -0.0348153
0.27943 0.0598604 -0.126303
0.258088 0.0911643 -0.206856
0.242946 0.121296 -0.25939
0.235169 0.136686 -0.275419
0.230793 0.125788 -0.256289
0.226798 0.081275 -0.213754
0.221025 0.00523813 -0.163017
0.210352 -0.0905714 -0.117236
0.193425 -0.187076 -0.0832292
0.17197 -0.263739 -0.0632434
0.148231 -0.303841 -0.0540375
0.12528 -0.301464 -0.0491009
0.105568 -0.261426 -0.0441871
0.0900832 -0.197315 -0.0383722
0.0780299 -0.127338 -0.0330826
0.0688709 -0.0661118 -0.0290325
0.25988 -0.0072999 0.109583
0.288362 -0.00365804 0.120634
0.29909 0.00591755 0.105161
0.296652 0.021357 0.0631096
0.285885 0.0439694 0.000481083
0.272159 0.0746893 -0.072188
0.260507 0.109537 -0.137177
0.25366 0.138372 -0.181252
0.25209 0.150394 -0.197762
0.251691 0.137054 -0.187371
0.24944 0.0939192 -0.158927
0.242246 0.024311 -0.123734
0.227035 -0.0607644 -0.0916995
0.202913 -0.144837 -0.0681038
0.172315 -0.210695 -0.0546998
0.139047 -0.244703 -0.0495971
0.107186 -0.242553 -0.0480064
0.0803816 -0.209085 -0.0460559
0.0604343 -0.156506 -0.0421979
0.0469234 -0.0998936 -0.0374036
0.0396578 -0.050812 -0.0320381
-0.00559852 0.0400145 0.188144
-0.0393746 0.0596327 0.205651
-0.0821559 0.0824937 0.175522
-0.129514 0.10756 0.10173
-0.176358 0.130695 0.00199018
-0.216181 0.150638 -0.0945545
-0.245984 0.159851 -0.154279
-0.262107 0.153641 -0.165236
-0.264119 0.127212 -0.133523
-0.251813 0.0772671 -0.074255
-0.224387 0.00608481 -0.0144467
-0.182259 -0.0778706 0.024844
-0.128011 -0.160668 0.0357387
-0.0659584 -0.225075 0.0266307
-0.00375404 -0.257243 0.0129398
0.0485657 -0.248741 0.0131646
0.0856475 -0.202146 0.0371167
0.104014 -0.132694 0.0759778
0.104224 -0.0644843 0.112585
0.089137 -0.0107209 0.132146
0.0645895 0.0192363 0.126705
0.013545 0.0356139 0.23307
-0.0237414 0.0644118 0.250874
-0.0730019 0.102274 0.208427
-0.127384 0.145222 0.112026
-0.179801 0.185654 -0.0157611
-0.222434 0.217696 -0.14023
-0.251154 0.229326 -0.217492
-0.261954 0.214622 -0.231251
-0.254856 0.17026 -0.189377
-0.23157 0.0964476 -0.111965
-0.192806 -0.000630508 -0.0330857
-0.140266 -0.108461 0.0197884
-0.077886 -0.209806 0.03603
-0.0107632 -0.285044 0.0258726
0.0523847 -0.319879 0.00925735
0.101371 -0.306593 0.0105793
0.131428 -0.249784 0.0432672
0.140527 -0.16725 0.0942745
0.130184 -0.0851735 0.143621
0.104615 -0.0197872 0.171714
0.0710719 0.0182279 0.166828
0.0359952 0.0235405 0.253389
0.00160766 0.0646322 0.267798
-0.0463163 0.122217 0.215438
-0.0989642 0.18817 0.104178
-0.148165 0.24982 -0.0405089
-0.185191 0.295308 -0.18156
-0.205234 0.30803 -0.26852
-0.204756 0.281327 -0.282523
-0.18536 0.214905 -0.231827
-0.150893 0.114477 -0.140739
-0.103949 -0.00861442 -0.048224
-0.0476175 -0.137587 0.0136347
0.0133235 -0.252758 0.0322534
0.073804 -0.334008 0.0193518
0.125564 -0.3682 -0.00150183
0.159518 -0.34966 -0.000304994
0.173316 -0.285356 0.0392316
0.167172 -0.194674 0.100277
0.143506 -0.103532 0.161272
0.107553 -0.0298913 0.19852
0.067289 0.014753 0.196122
0.0475773 0.00708032 0.245236
0.0197023 0.0621731 0.255591
-0.020419 0.141623 0.199322
-0.0634643 0.231656 0.0850103
-0.100505 0.314667 -0.0632956
-0.123018 0.372473 -0.205945
-0.126872 0.384556 -0.292373
-0.109816 0.344219 -0.302566
-0.0762161 0.255286 -0.244959
-0.0320497 0.129951 -0.145853
0.0181877 -0.0149654 -0.0472219
0.0704531 -0.158901 0.0163065
0.120148 -0.280984 0.0312371
0.163452 -0.362359 0.0107611
0.193997 -0.392661 -0.0187437
0.205368 -0.36958 -0.0223302
0.197774 -0.302096 0.0191677
0.174167 -0.209875 0.0869987
0.137783 -0.116274 0.157607
0.0944924 -0.0400701 0.204089
0.0513399 0.00788437 0.20697
0.0314592 -0.0104875 0.214798
0.0105327 0.0581871 0.223743
-0.0184257 0.158054 0.172958
-0.0460334 0.269471 0.0682126
-0.0643798 0.369497 -0.0665751
-0.0656619 0.435854 -0.194962
-0.0477181 0.44497 -0.270876
-0.0113287 0.391208 -0.275328
0.0364719 0.282915 -0.215383
0.0877881 0.138712 -0.117225
0.136436 -0.019768 -0.0230418
0.177942 -0.169425 0.0324941
0.209014 -0.289757 0.0360404
0.228219 -0.364854 0.00197103
0.232473 -0.388433 -0.0413705
0.218793 -0.362135 -0.0559461
0.190455 -0.29646 -0.0198739
0.152314 -0.209569 0.0488407
0.108334 -0.121292 0.126068
0.0636311 -0.0491093 0.181498
0.0233582 -0.0022275 0.193003
-0.0234328 -0.0265631 0.166082
-0.0418369 0.051732 0.177151
-0.0612206 0.166128 0.14241
-0.0720861 0.291644 0.063872
-0.0678947 0.401782 -0.0397982
-0.0436155 0.471046 -0.138557
-0.000313954 0.475166 -0.195842
0.0573378 0.410275 -0.194273
0.119277 0.289058 -0.138046
0.17585 0.135525 -0.0512383
0.219678 -0.0252949 0.0274119
0.246512 -0.169473 0.0656795
0.255495 -0.278549 0.0511896
0.248529 -0.340946 -0.00146804
0.226731 -0.355286 -0.0630976
0.19113 -0.32733 -0.0946433
0.14737 -0.268141 -0.0723922
0.101668 -0.193357 -0.0108203
0.0576628 -0.117777 0.0675401
0.0188989 -0.0559863 0.130763
-0.0120721 -0.0145025 0.154612
-0.115915 -0.0377666 0.119836
-0.138866 0.0438774 0.140244
-0.154095 0.16312 0.131025
-0.151783 0.291746 0.088809
-0.12695 0.401911 0.0250679
-0.0780822 0.467119 -0.0388504
-0.0101239 0.464896 -0.0757386
0.0680179 0.393334 -0.0697847
0.143374 0.268666 -0.0223729
0.204649 0.118085 0.0466181
0.243649 -0.0322197 0.103475
0.256757 -0.15958 0.11929
0.246134 -0.24905 0.082706
0.217394 -0.29408 0.00788758
0.176079 -0.298185 -0.0759756
0.127121 -0.270408 -0.129746
0.0778193 -0.221525 -0.128048
0.0343028 -0.163618 -0.0800394
-0.000761464 -0.106307 -0.0052849
-0.0265608 -0.0597709 0.0635521
-0.0433563 -0.0273617 0.101046
-0.228321 -0.0408248 0.08568
-0.261072 0.0361605 0.121558
-0.277176 0.148037 0.143312
-0.266351 0.266383 0.141566
-0.225065 0.364569 0.11906
-0.155581 0.418238 0.0891829
-0.0668159 0.408808 0.0710654
0.0284866 0.336577 0.0789215
0.114919 0.219679 0.114364
0.17995 0.085478 0.163013
0.215142 -0.0415075 0.196866
0.217931 -0.142095 0.190433
0.193574 -0.205945 0.132919
0.151193 -0.23147 0.0372538
0.100254 -0.226079 -0.0683532
0.0485418 -0.200701 -0.145779
0.00404511 -0.164501 -0.168132
-0.0283456 -0.125638 -0.138219
-0.047988 -0.0891888 -0.0725826
-0.0571624 -0.0603964 -0.00284178
-0.0587722 -0.0388546 0.0456153
-0.336018 -0.0328384 0.0666059
-0.380322 0.0322451 0.11985
-0.400484 0.124584 0.171575
-0.385751 0.218998 0.20645
-0.3339 0.293537 0.220035
-0.250586 0.328671 0.21872
-0.147984 0.311651 0.214797
-0.0416964 0.244937 0.221587
0.0514758 0.146397 0.244142
0.1185 0.0402931 0.273932
0.151404 -0.0534428 0.288743
0.149037 -0.121028 0.266137
0.119256 -0.157215 0.195165
0.0737283 -0.164488 0.0864556
0.0244695 -0.152383 -0.0340975
-0.0193189 -0.131731 -0.130742
-0.0503316 -0.109063 -0.175932
-0.065838 -0.0885657 -0.166181
-0.0675591 -0.0716105 -0.114642
-0.0606756 -0.059268 -0.0507521
-0.0500363 -0.0481897 0.00168938
-0.416167 -0.0129308 0.061461
-0.470826 0.0345446 0.128466
-0.496765 0.0981119 0.201911
-0.483024 0.158776 0.262759
-0.428344 0.201706 0.300988
-0.340671 0.214061 0.317121
-0.234044 0.189991 0.319764
-0.125336 0.133802 0.322387
-0.0313217 0.0609456 0.333682
0.0353958 -0.0102093 0.350505
0.067925 -0.0664666 0.355563
0.066622 -0.100496 0.328431
0.040901 -0.111834 0.25702
0.00347266 -0.105594 0.148476
-0.0330639 -0.0913466 0.0248658
-0.0598319 -0.0778379 -0.0816092
-0.071344 -0.0681428 -0.143715
-0.0675324 -0.062919 -0.153338
-0.0526019 -0.0609267 -0.119766
-0.0337893 -0.0602233 -0.0685201
-0.0165464 -0.0562202 -0.0206029
-0.453241 0.01843 0.0604653
-0.514071 0.0456295 0.133176
-0.545658 0.0757547 0.215182
-0.537138 0.0978493 0.286092
-0.487875 0.105526 0.333147
-0.406598 0.0937833 0.353471
-0.307419 0.0638232 0.354775
-0.206619 0.0213635 0.351616
-0.11941 -0.022484 0.356101
-0.0568149 -0.0573174 0.369117
-0.0240212 -0.0779754 0.376687
-0.0192055 -0.0837307 0.359098
-0.0326443 -0.077863 0.30222
-0.0522995 -0.0661539 0.20892
-0.0670833 -0.0558938 0.0963909
-0.0701658 -0.0519184 -0.00745062
-0.0587649 -0.0533629 -0.0766918
-0.0355969 -0.0581081 -0.100998
-0.00715241 -0.0636194 -0.0861016
0.018372 -0.0669322 -0.0524552
0.0360608 -0.0641359 -0.0173233
-0.442717 0.0587377 0.0545368
-0.504709 0.0666436 0.122414
-0.541138 0.064053 0.197953
-0.541663 0.0486379 0.261668
-0.505924 0.0224998 0.301118
-0.44178 -0.0113671 0.312887
-0.361623 -0.0453509 0.305901
-0.279316 -0.0730326 0.296446
-0.207114 -0.0889867 0.29938
-0.153336 -0.0918839 0.317938
-0.120959 -0.0848306 0.339626
-0.106902 -0.072941 0.344248
-0.102329 -0.0615794 0.31507
-0.0974601 -0.0549483 0.250371
-0.084496 -0.0557556 0.162018
-0.0600797 -0.063427 0.0733611
-0.024651 -0.073048 0.00811748
0.0164979 -0.0807903 -0.0236026
0.0550708 -0.0843353 -0.0247318
0.082947 -0.0821571 -0.0102341
0.0965401 -0.0732459 0.00679796
-0.387608 0.103382 0.0403281
-0.446024 0.0962658 0.0939858
-0.486104 0.0666446 0.150238
-0.498505 0.020168 0.192117
-0.482725 -0.033734 0.210013
-0.444329 -0.0849265 0.202815
-0.392502 -0.12072 0.182056
-0.337277 -0.134841 0.166004
-0.286996 -0.128052 0.171352
-0.246506 -0.107877 0.202185
-0.216378 -0.0848184 0.245685
-0.192632 -0.06833 0.28024
-0.16823 -0.0640094 0.286399
-0.136738 -0.0725577 0.258203
-0.0946388 -0.0904749 0.20245
-0.042826 -0.111012 0.138134
0.0150237 -0.125561 0.0863333
0.0715286 -0.129644 0.0552072
0.117262 -0.122467 0.0435812
0.144902 -0.106141 0.0415465
0.152453 -0.0842586 0.0399906
-0.294218 0.145824 0.0230458
-0.344632 0.129806 0.0572713
-0.386288 0.0825038 0.0866953
-0.411197 0.0154818 0.097947
-0.418286 -0.0565295 0.0855416
-0.40984 -0.117897 0.052496
-0.3909 -0.152688 0.0140354
-0.366904 -0.155725 -0.00959849
-0.342049 -0.133704 -0.000895205
-0.317669 -0.101605 0.0440542
-0.292177 -0.0756013 0.110773
-0.26117 -0.0675594 0.175743
-0.219917 -0.0815327 0.217192
-0.165661 -0.113349 0.22584
-0.0991048 -0.152473 0.204286
-0.025196 -0.18599 0.167788
0.0497222 -0.202337 0.134812
0.116939 -0.197388 0.111008
0.166721 -0.172927 0.0958637
0.192837 -0.136153 0.0833851
0.194491 -0.096511 0.0677003
-0.174305 0.175658 0.0108183
-0.21319 0.156739 0.02667
-0.253403 0.102465 0.0292617
-0.288724 0.0284196 0.00835694
-0.316989 -0.0485434 -0.0365206
-0.33683 -0.110006 -0.0970353
-0.348757 -0.139723 -0.154308
-0.353861 -0.133941 -0.186456
-0.35276 -0.10438 -0.17607
-0.344107 -0.0712117 -0.120129
-0.32492 -0.0539241 -0.035319
-0.290958 -0.0646741 0.0530946
-0.239892 -0.104544 0.121889
-0.172218 -0.163855 0.15984
-0.0917886 -0.225224 0.166715
-0.00647338 -0.270386 0.154962
0.0759751 -0.285922 0.140863
0.146486 -0.268954 0.128026
0.195903 -0.224402 0.115686
0.219212 -0.165317 0.100266
0.21634 -0.106974 0.0782242
-0.0361366 0.184392 0.0153312
-0.059571 0.167734 0.0197708
-0.093819 0.116793 0.0020155
-0.134118 0.0479797 -0.0456147
-0.177027 -0.0218033 -0.11973
-0.217738 -0.0739794 -0.206248
-0.252812 -0.0932648 -0.282033
-0.279525 -0.079997 -0.324128
-0.296204 -0.048755 -0.316048
-0.300334 -0.0224 -0.255918
-0.288704 -0.0213141 -0.162527
-0.257675 -0.0561453 -0.0623592
-0.207024 -0.124169 0.0208652
-0.139436 -0.21033 0.0753779
-0.060116 -0.291491 0.0996483
0.0221968 -0.345343 0.104443
0.0996767 -0.3579 0.104535
0.16396 -0.328165 0.102665
0.207302 -0.264638 0.0974743
0.225691 -0.185928 0.0862952
0.21929 -0.111669 0.0663987
0.107611 0.17245 0.042065
0.103076 0.161409 0.0448089
0.0800782 0.121655 0.0167023
0.042238 0.0673238 -0.0479639
-0.0056717 0.0138984 -0.143252
-0.0563054 -0.0222189 -0.251001
-0.103183 -0.0283517 -0.343138
-0.141158 -0.00824539 -0.39593
-0.167362 0.0205235 -0.394623
-0.179822 0.0355479 -0.338378
-0.176148 0.0176349 -0.24735
-0.153611 -0.041123 -0.148387
-0.113567 -0.134141 -0.0647016
-0.0596242 -0.241972 -0.00747802
0.00353334 -0.337569 0.0217586
0.0682211 -0.396359 0.0329393
0.127928 -0.404947 0.0399602
0.17614 -0.364429 0.0459961
0.207232 -0.286682 0.0492743
0.217933 -0.194245 0.046757
0.208051 -0.109796 0.0356545
0.225289 0.144237 0.0787094
0.238608 0.140622 0.0854372
0.228422 0.116393 0.0558628
0.197997 0.0818097 -0.0134133
0.153469 0.049578 -0.116599
0.103131 0.0326635 -0.233907
0.0554233 0.0401204 -0.334624
0.0172878 0.0654164 -0.395104
-0.00914064 0.0895025 -0.402448
-0.0237096 0.092421 -0.357024
-0.0256045 0.0575828 -0.278425
-0.0133212 -0.0197424 -0.192074
0.0106803 -0.129837 -0.119295
0.0428829 -0.250558 -0.0698322
0.0804 -0.353312 -0.04468
0.118218 -0.413109 -0.0347721
0.152309 -0.417913 -0.027167
0.178815 -0.370797 -0.0174738
0.194396 -0.286157 -0.00772907
0.196487 -0.188345 -0.00166943
0.184169 -0.101061 -0.00215391
0.299618 0.103828 0.11216
0.32788 0.107366 0.125824
0.330678 0.0990582 0.101285
0.311657 0.0856343 0.0359105
0.276977 0.0758472 -0.0631263
0.235323 0.078444 -0.178546
0.195552 0.0983055 -0.278768
0.164161 0.12673 -0.342016
0.144037 0.145453 -0.356955
0.132586 0.138031 -0.324884
0.128484 0.091422 -0.26346
0.1317 0.00401469 -0.195248
0.138883 -0.112492 -0.138736
0.147023 -0.23531 -0.101895
0.155499 -0.336836 -0.0851194
0.162735 -0.393568 -0.0803138
0.167961 -0.395323 -0.075846
0.170442 -0.346852 -0.0664245
0.169321 -0.263603 -0.0538201
0.162748 -0.169559 -0.0418838
0.149192 -0.0870614 -0.0335219
0.320602 0.0592248 0.129441
0.356627 0.0675845 0.14946
0.368561 0.0725626 0.133492
0.360231 0.0775166 0.0791493
0.337596 0.0869902 -0.00718256
0.308513 0.105739 -0.109636
0.281186 0.134672 -0.200161
0.260867 0.163654 -0.259627
0.249675 0.177639 -0.278836
0.244292 0.163677 -0.259085
0.24091 0.112448 -0.215379
0.238025 0.0248332 -0.166387
0.231755 -0.0869106 -0.12713
0.21984 -0.201348 -0.103736
0.203609 -0.293919 -0.0960592
0.184598 -0.344136 -0.0971259
0.165459 -0.343886 -0.0972882
0.148187 -0.298838 -0.0909541
0.133749 -0.224103 -0.078969
0.120959 -0.141345 -0.0647624
0.108141 -0.0697326 -0.0513674
0.285483 0.0173003 0.123702
0.320192 0.0279042 0.145811
0.335218 0.0419272 0.138048
0.334433 0.0593084 0.0980741
0.322604 0.0810398 0.0308277
0.306372 0.109471 -0.0502345
0.29198 0.142757 -0.122801
0.283131 0.170915 -0.172299
0.280779 0.181757 -0.191441
0.281074 0.165842 -0.18115
0.280214 0.11717 -0.153052
0.275138 0.038167 -0.121154
0.261977 -0.059653 -0.0966147
0.239075 -0.157805 -0.0838526
0.208841 -0.235802 -0.0823512
0.175041 -0.276938 -0.0870696
0.141982 -0.27525 -0.0905963
0.113552 -0.236684 -0.0879702
0.0919688 -0.174889 -0.0790371
0.0766386 -0.107796 -0.0664816
0.0661454 -0.0505962 -0.052673
-0.032614 0.0417798 0.212651
-0.072809 0.0605656 0.232707
-0.122897 0.0834922 0.197813
-0.178718 0.110968 0.112214
-0.235095 0.139648 -0.00374705
-0.284981 0.166715 -0.116818
-0.323854 0.184154 -0.188721
-0.345655 0.185689 -0.205827
-0.347725 0.165173 -0.174712
-0.328928 0.11868 -0.112054
-0.288678 0.0491231 -0.0476718
-0.2293 -0.0336349 -0.00446544
-0.156107 -0.114281 0.00951281
-0.0765132 -0.174892 0.00425229
-0.00102741 -0.202303 -0.00349873
0.0587364 -0.188924 0.00600174
0.0974419 -0.139167 0.0422136
0.113002 -0.0712249 0.0933237
0.107727 -0.00899764 0.139732
0.0866869 0.035399 0.163654
0.0579741 0.0537751 0.156389
-0.010516 0.0466464 0.263661
-0.0538179 0.0765313 0.28505
-0.110736 0.114773 0.236962
-0.175189 0.159002 0.126072
-0.239916 0.202796 -0.0217573
-0.295878 0.239304 -0.166643
-0.336938 0.256739 -0.258877
-0.355592 0.247887 -0.279886
-0.34888 0.20838 -0.238274
-0.317364 0.137984 -0.156257
-0.262065 0.0433916 -0.0716226
-0.187399 -0.0616454 -0.014309
-0.101044 -0.158707 0.0049228
-0.0122428 -0.227758 -0.00144317
0.0667252 -0.255555 -0.0113097
0.123939 -0.235437 0.00175234
0.154816 -0.17418 0.0509301
0.159271 -0.0929884 0.118699
0.141173 -0.0177139 0.181666
0.107504 0.0365789 0.216118
0.0680598 0.0605073 0.208866
0.0214497 0.0461428 0.286811
-0.0173931 0.091028 0.305101
-0.0722147 0.149731 0.24674
-0.13554 0.215127 0.119886
-0.198829 0.276256 -0.0462823
-0.251481 0.321419 -0.209008
-0.286146 0.335318 -0.311638
-0.295048 0.310652 -0.33269
-0.276197 0.246659 -0.281277
-0.232218 0.149073 -0.184363
-0.166345 0.0295131 -0.0853186
-0.0849976 -0.0943935 -0.0191337
0.00245379 -0.202267 0.00158734
0.0862303 -0.274095 -0.00858188
0.154055 -0.298252 -0.0230971
0.195359 -0.270498 -0.00910926
0.208295 -0.200211 0.0497001
0.195425 -0.110462 0.130647
0.161948 -0.0265231 0.208013
0.116182 0.0347961 0.253044
0.0685565 0.0634442 0.247599
0.0452491 0.04161 0.278399
0.0148929 0.10351 0.292448
-0.0310012 0.185079 0.230338
-0.0843726 0.272777 0.101155
-0.135888 0.350651 -0.0677212
-0.174868 0.402035 -0.230628
-0.194078 0.408963 -0.331164
-0.186762 0.365143 -0.346771
-0.15348 0.274801 -0.286829
-0.099211 0.150905 -0.180674
-0.0293789 0.0104132 -0.0751506
0.0483061 -0.12575 -0.00802857
0.124234 -0.236716 0.0072983
0.189764 -0.304514 -0.0126203
0.23459 -0.321024 -0.0377973
0.251226 -0.285846 -0.029659
0.240659 -0.210581 0.0314081
0.208532 -0.118644 0.120168
0.161019 -0.0323902 0.208158
0.107089 0.0306908 0.262966
0.0559534 0.0613738 0.262413
0.0389427 0.0347329 0.245985
0.0169914 0.113319 0.258152
-0.0166205 0.216643 0.202284
-0.0535066 0.324243 0.084598
-0.0852018 0.414447 -0.067595
-0.101727 0.467782 -0.212578
-0.0977306 0.46439 -0.299316
-0.069792 0.400373 -0.306573
-0.0215756 0.285702 -0.242425
0.0397094 0.140705 -0.136311
0.106682 -0.0128283 -0.0354474
0.171241 -0.151922 0.0222905
0.22523 -0.256912 0.0237201
0.262853 -0.313738 -0.0131273
0.277672 -0.319294 -0.0558543
0.266219 -0.277764 -0.0622542
0.232805 -0.202421 -0.00930282
0.185155 -0.115011 0.078706
0.130094 -0.0340015 0.172556
0.0755463 0.0246549 0.236185
0.0281401 0.0537105 0.244617
-0.012954 0.0269149 0.194198
-0.0316054 0.118124 0.207862
-0.0545716 0.237643 0.169334