# vtk DataFile Version 2.0
Func
ASCII
DATASET RECTILINEAR_GRID
DIMENSIONS 21 21 21
X_COORDINATES 21 double
-4.7619
-4.28571
-3.80952
-3.33333
-2.85714
-2.38095
-1.90476
-1.42857
-0.952381
-0.47619
0
0.47619
0.952381
1.42857
1.90476
2.38095
2.85714
3.33333
3.80952
4.28571
4.7619
Y_COORDINATES 21 double
-4.7619
-4.28571
-3.80952
-3.33333
-2.85714
-2.38095
-1.90476
-1.42857
-0.952381
-0.47619
0
0.47619
0.952381
1.42857
1.90476
2.38095
2.85714
3.33333
3.80952
4.28571
4.7619
Z_COORDINATES 21 double
-4.7619
-4.28571
-3.80952
-3.33333
-2.85714
-2.38095
-1.90476
-1.42857
-0.952381
-0.47619
0
0.47619
0.952381
1.42857
1.90476
2.38095
2.85714
3.33333
3.80952
4.28571
4.7619
POINT_DATA 9261
SCALARS data double 3
LOOKUP_TABLE default
0.0853389 -0.0299986 0.171127
0.0839097 -0.0710783 0.189966
0.0764221 -0.114715 0.177276
0.062726 -0.143072 0.138665
0.0433321 -0.142847 0.0891472
0.0195977 -0.101723 0.0457899
-0.00907632 -0.0247614 0.02558
-0.0412408 0.0718771 0.0291708
-0.0757409 0.164836 0.0474883
-0.109979 0.231808 0.070262
-0.137186 0.261276 0.0841914
-0.150449 0.254011 0.082589
-0.145731 0.220956 0.0647969
-0.122452 0.177389 0.0337106
-0.0829016 0.136854 -0.00483314
-0.0340207 0.106783 -0.0470485
0.0164577 0.0885314 -0.0879005
0.0605622 0.0757601 -0.11815
0.0927798 0.0620434 -0.135631
0.109471 0.0455845 -0.137041
0.109747 0.0284237 -0.12147
0.110239 -0.046892 0.2354
0.102399 -0.0943231 0.26178
0.0840674 -0.140711 0.245679
0.057077 -0.166929 0.194613
0.0246069 -0.15873 0.127032
-0.0100846 -0.104582 0.0630972
-0.0457109 -0.0120009 0.0272355
-0.0795079 0.099412 0.021811
-0.110202 0.202947 0.0366198
-0.136774 0.274008 0.0597562
-0.153504 0.301069 0.0752783
-0.154169 0.286892 0.0744808
-0.136184 0.24577 0.0558176
-0.099941 0.196688 0.0222843
-0.0486573 0.155523 -0.0199181
0.00935859 0.130819 -0.0662196
0.0659027 0.122079 -0.111168
0.112074 0.118857 -0.143419
0.142428 0.111189 -0.161942
0.153858 0.095782 -0.162892
0.146218 0.0733033 -0.144668
0.126451 -0.0703841 0.286396
0.110767 -0.122885 0.3199
0.080415 -0.169807 0.302953
0.0396945 -0.191475 0.244017
-0.00542996 -0.173292 0.162774
-0.0491512 -0.106498 0.0811867
-0.0878443 -0.00114567 0.0296897
-0.117071 0.120701 0.0120514
-0.136277 0.230401 0.0177931
-0.147176 0.302288 0.0349007
-0.146017 0.32564 0.0465454
-0.129082 0.305405 0.0433296
-0.096084 0.258915 0.0235537
-0.0491559 0.208402 -0.00956755
0.0077588 0.171295 -0.0493934
0.0667794 0.157057 -0.0918148
0.119831 0.16285 -0.131582
0.15904 0.173693 -0.157994
0.180184 0.175275 -0.171448
0.181588 0.161936 -0.168761
0.164419 0.132884 -0.148014
0.136994 -0.092952 0.314864
0.113533 -0.14895 0.354576
0.0723843 -0.195106 0.340673
0.0197016 -0.212646 0.281519
-0.0355572 -0.186042 0.195
-0.0854654 -0.110126 0.105008
-0.124412 0.0032098 0.0435961
-0.146651 0.130353 0.0151243
-0.152847 0.242256 0.00860828
-0.146992 0.313435 0.0134311
-0.127964 0.334372 0.0136806
-0.0950437 0.311825 0.00129431
-0.0504046 0.265194 -0.0239161
0.00243716 0.218797 -0.0577048
0.0584386 0.190702 -0.092254
0.110968 0.190535 -0.124269
0.153646 0.212799 -0.150484
0.180579 0.23834 -0.164161
0.18911 0.248742 -0.165951
0.179527 0.236926 -0.155489
0.15515 0.199921 -0.131881
0.144752 -0.108287 0.313078
0.116409 -0.166259 0.357624
0.0684049 -0.211887 0.351748
0.00809346 -0.227813 0.302041
-0.0541588 -0.197603 0.224727
-0.108533 -0.118788 0.141369
-0.148246 -0.00387283 0.0811608
-0.167085 0.12346 0.0466479
-0.165591 0.234807 0.0269338
-0.149303 0.305887 0.0133506
-0.119223 0.32812 -0.00699555
-0.0771937 0.30907 -0.0384442
-0.02741 0.268712 -0.077518
0.0255715 0.231854 -0.117342
0.0758117 0.216263 -0.14816
0.117569 0.23085 -0.166747
0.146446 0.268217 -0.173012
0.159606 0.305456 -0.166633
0.156207 0.322214 -0.150957
0.138731 0.309925 -0.128426
0.112357 0.264182 -0.100375
0.154393 -0.110778 0.274035
0.125423 -0.169141 0.31895
0.0754598 -0.215337 0.324361
0.0118993 -0.233441 0.295511
-0.0545764 -0.205773 0.243755
-0.113893 -0.131728 0.184731
-0.158524 -0.0224951 0.139315
-0.181777 0.0998075 0.107065
-0.183391 0.208568 0.0773477
-0.168842 0.28136 0.0431479
-0.139878 0.309867 -0.00354525
-0.0997141 0.300984 -0.0616196
-0.0535388 0.273363 -0.12236
-0.00640755 0.250433 -0.174692
0.0350659 0.248506 -0.206358
0.0658228 0.27562 -0.213358
0.0831264 0.323189 -0.198327
0.0867291 0.366675 -0.168325
0.0775095 0.384843 -0.131091
0.0593267 0.369002 -0.0941617
0.0381595 0.314192 -0.061285
0.173214 -0.096816 0.202268
0.149243 -0.153181 0.242942
0.102931 -0.200993 0.260861
0.0401371 -0.225357 0.259934
-0.0297769 -0.207023 0.245815
-0.0973892 -0.145669 0.225723
-0.154773 -0.0492265 0.20874
-0.194619 0.0631128 0.18987
-0.214531 0.167913 0.157689
-0.217831 0.244544 0.106
-0.205157 0.283985 0.0319817
-0.179384 0.290894 -0.0571172
-0.145433 0.2808 -0.146319
-0.108269 0.274035 -0.219002
-0.0749554 0.284442 -0.259173
-0.0509495 0.319427 -0.261077
-0.0380677 0.370461 -0.229157
-0.0350203 0.412985 -0.176962
-0.0400736 0.427042 -0.117797
-0.049176 0.404738 -0.0651639
-0.0570193 0.341877 -0.0258868
0.198157 -0.0637333 0.101603
0.184401 -0.1147 0.131502
0.147107 -0.163862 0.158847
0.0891682 -0.197421 0.186608
0.0172479 -0.194933 0.214749
-0.0606478 -0.153865 0.242074
-0.136615 -0.0773065 0.263552
-0.202589 0.0204529 0.268569
-0.25314 0.119454 0.243931
-0.287594 0.200891 0.183098
-0.303734 0.254069 0.0876479
-0.302422 0.280055 -0.0295657
-0.287077 0.289796 -0.147434
-0.262002 0.299118 -0.243346
-0.23468 0.318916 -0.296825
-0.211638 0.355665 -0.29946
-0.195185 0.402602 -0.256367
-0.18376 0.436773 -0.186338
-0.175766 0.4417 -0.108061
-0.168086 0.411008 -0.0411336
-0.157384 0.342274 0.00433892
0.225224 -0.0147807 -0.014915
0.225039 -0.0557697 -0.00213065
0.200452 -0.104272 0.0285463
0.15058 -0.147781 0.0794451
0.0785173 -0.165158 0.146538
-0.0095083 -0.149824 0.221269
-0.105891 -0.098367 0.283967
-0.20185 -0.0194984 0.318545
-0.288482 0.0707167 0.309966
-0.360006 0.155363 0.250325
-0.410315 0.221607 0.144193
-0.437255 0.26625 0.00844059
-0.442076 0.294941 -0.1311
-0.42822 0.318249 -0.246639
-0.403766 0.343943 -0.313459
-0.376929 0.377585 -0.319924
-0.351189 0.41472 -0.270619
-0.325952 0.435372 -0.188393
-0.300671 0.427984 -0.0966128
-0.273832 0.388845 -0.0194754
-0.244335 0.317811 0.0298216
0.252741 0.0421067 -0.124966
0.267498 0.0152681 -0.131833
0.25688 -0.0291183 -0.103531
0.216694 -0.0802033 -0.0379362
0.146446 -0.117254 0.0581588
0.0505936 -0.129143 0.170385
-0.0636235 -0.10542 0.267365
-0.186805 -0.0490361 0.329324
-0.306786 0.0282288 0.340259
-0.41269 0.111705 0.290639
-0.494422 0.18675 0.186274
-0.546643 0.246092 0.0455281
-0.568454 0.290178 -0.103696
-0.562574 0.324256 -0.230587
-0.53787 0.35301 -0.307354
-0.504476 0.381075 -0.319064
-0.46749 0.406352 -0.268505
-0.427989 0.412355 -0.180557
-0.386827 0.392816 -0.0820944
-0.344093 0.346809 -0.000167532
-0.300906 0.276993 0.0496824
0.276709 0.0991128 -0.206922
0.305736 0.0892406 -0.230389
0.308705 0.0525683 -0.207379
0.279343 -0.00209054 -0.136096
0.214294 -0.0554878 -0.0250669
0.116431 -0.0925442 0.10775
-0.00744681 -0.0961034 0.224273
-0.147735 -0.0639402 0.303891
-0.289893 -0.00351874 0.331364
-0.419275 0.0731277 0.296115
-0.522792 0.150424 0.203744
-0.592626 0.218007 0.0714977
-0.62625 0.272056 -0.0737527
-0.625832 0.31318 -0.20107
-0.600809 0.343251 -0.28159
-0.562758 0.365901 -0.297639
-0.518116 0.380709 -0.249401
-0.469604 0.374439 -0.161914
-0.419305 0.345686 -0.0637533
-0.368461 0.295939 0.0173567
-0.319713 0.23021 0.0644318
0.294701 0.148971 -0.243388
0.335915 0.156681 -0.274361
0.35102 0.130242 -0.254645
0.333296 0.0762556 -0.183397
0.277748 0.0118012 -0.0707
0.185815 -0.0455562 0.0636488
0.0637679 -0.0730098 0.180893
-0.0792523 -0.064415 0.262878
-0.227699 -0.0233709 0.297432
-0.365372 0.0409374 0.274508
-0.477861 0.113177 0.198886
-0.556091 0.18147 0.0845635
-0.596666 0.239324 -0.0455796
-0.601231 0.284052 -0.163473
-0.579141 0.315163 -0.241556
-0.5423 0.335053 -0.260489
-0.497629 0.34379 -0.217511
-0.448911 0.330538 -0.135956
-0.398857 0.297521 -0.0442451
-0.349265 0.24784 0.0312445
-0.3035 0.188073 0.0730996
0.304496 0.185267 -0.229338
0.355176 0.208608 -0.25465
0.380761 0.193418 -0.231297
0.375503 0.143843 -0.160548
0.334038 0.0744676 -0.054788
0.256417 0.00342517 0.0652519
0.148158 -0.0425378 0.165493
0.0171727 -0.0549134 0.233148
-0.121571 -0.0341263 0.261442
-0.252746 0.0135924 0.243164
-0.362515 0.0744115 0.182637
-0.441835 0.136677 0.0894511
-0.48709 0.193033 -0.0196718
-0.499201 0.239069 -0.121999
-0.486353 0.272372 -0.193482
-0.459253 0.293804 -0.214443
-0.424074 0.302581 -0.179319
-0.384734 0.289096 -0.108045
-0.343764 0.257548 -0.0272783
-0.303051 0.211612 0.0394062
-0.266148 0.158567 0.0750816
0.301485 0.204202 -0.174894
0.358533 0.239096 -0.181021
0.393745 0.233719 -0.144418
0.402449 0.190574 -0.0701425
0.379684 0.121715 0.0260981
0.324072 0.0440254 0.123119
0.239896 -0.0137588 0.194561
0.132994 -0.0424083 0.234685
0.0162679 -0.0401877 0.243865
-0.0978461 -0.010605 0.220025
-0.19773 0.0349695 0.168058
-0.275395 0.0866164 0.0932546
-0.327224 0.137824 0.005354
-0.35284 0.184011 -0.0796886
-0.35787 0.221281 -0.142948
-0.350173 0.248701 -0.165716
-0.333787 0.263518 -0.140251
-0.311646 0.256082 -0.0820088
-0.285354 0.230947 -0.0146073
-0.256769 0.191511 0.0419315
-0.229342 0.144431 0.0717801
0.284076 0.205955 -0.103345
0.345076 0.246613 -0.0819256
0.389076 0.247059 -0.0239102
0.412505 0.209017 0.0602787
0.411003 0.143295 0.150003
0.381498 0.0648245 0.223362
0.326427 0.00246896 0.262509
0.249282 -0.0354754 0.26895
0.159934 -0.0465746 0.250931
0.0669887 -0.0324679 0.213302
-0.0210692 -0.00185656 0.162559
-0.0978318 0.0380518 0.100567
-0.159593 0.0828927 0.030385
-0.204131 0.129248 -0.0391729
-0.233519 0.172195 -0.0949824
-0.251562 0.208794 -0.120222
-0.259048 0.233273 -0.105671
-0.257276 0.23524 -0.0615862
-0.246547 0.218752 -0.00771269
-0.228692 0.185846 0.039304
-0.207595 0.142263 0.0650735
0.25224 0.193541 -0.0414683
0.31569 0.232815 0.00901779
0.368411 0.233953 0.0920217
0.406847 0.197546 0.191402
0.426655 0.134729 0.281152
0.423539 0.0591057 0.337617
0.397624 -0.00166775 0.349101
0.349346 -0.0411341 0.323353
0.285439 -0.0579226 0.276359
0.21095 -0.0530233 0.220748
0.131109 -0.0330584 0.165516
0.0508294 -0.0023654 0.110499
-0.0255612 0.0373913 0.0532993
-0.0934831 0.0847135 -0.00385853
-0.150883 0.134149 -0.0535672
-0.196661 0.180244 -0.0814137
-0.228417 0.215105 -0.0774915
-0.24522 0.2267 -0.0469926
-0.246114 0.217589 -0.00520349
-0.233347 0.188791 0.0341641
-0.211924 0.145619 0.0575301
0.20707 0.170539 -0.00909149
0.271649 0.202261 0.0640551
0.332593 0.197852 0.169113
0.384953 0.15926 0.284154
0.4239 0.0974836 0.378853
0.443883 0.0268474 0.427967
0.442798 -0.0279296 0.421842
0.418243 -0.0623966 0.372208
0.373578 -0.0773155 0.301629
0.311498 -0.0743085 0.22998
0.234503 -0.0588065 0.16902
0.146367 -0.0327295 0.11797
0.0525062 0.00486806 0.0706741
-0.0399221 0.0545853 0.0240046
-0.124637 0.110369 -0.0195788
-0.195954 0.165269 -0.0484033
-0.248454 0.209459 -0.0527645
-0.278782 0.228879 -0.0338316
-0.285042 0.224047 -0.00191398
-0.270384 0.195794 0.0313322
-0.241867 0.15017 0.0531161
0.152007 0.141452 -0.00637221
0.215341 0.160876 0.0784741
0.281704 0.146036 0.195808
0.343811 0.101571 0.318587
0.395477 0.039503 0.41583
0.431502 -0.0256003 0.463606
0.447459 -0.0715312 0.451282
0.439075 -0.0963962 0.390855
0.4069 -0.103274 0.308257
0.352576 -0.0953541 0.228482
0.276578 -0.077828 0.164971
0.181839 -0.0511069 0.117443
0.0748122 -0.0123703 0.0781486
-0.0351983 0.0406547 0.0406466
-0.138592 0.101601 0.00401533
-0.226429 0.162462 -0.0229416
-0.291028 0.212219 -0.0318532
-0.326954 0.235109 -0.0213479
-0.33236 0.2306 0.00302095
-0.311225 0.199561 0.0310827
-0.272952 0.149964 0.0510545
0.0985052 0.110889 -0.0232979
0.158175 0.116151 0.0590252
0.22528 0.0891174 0.174769
0.290459 0.0374177 0.295302
0.347251 -0.0260491 0.390309
0.390144 -0.0851035 0.438158
0.414024 -0.121091 0.426835
0.413746 -0.133854 0.367829
0.387908 -0.129253 0.286252
0.338205 -0.112242 0.209121
0.26395 -0.0884953 0.15013
0.167454 -0.057775 0.109501
0.0557413 -0.0162052 0.0790611
-0.0608008 0.0395583 0.0506316
-0.17106 0.10331 0.0213033
-0.263472 0.166277 -0.00287058
-0.329329 0.216946 -0.0149052
-0.36277 0.239192 -0.0116235
-0.362547 0.231613 0.00575536
-0.333607 0.196132 0.0288437
-0.286982 0.142565 0.0468516
0.0562399 0.0832665 -0.0464403
0.110005 0.075774 0.0226276
0.172075 0.0384835 0.124083
0.233549 -0.0191364 0.232713
0.287229 -0.082648 0.320375
0.328109 -0.13542 0.36699
0.350985 -0.161821 0.360129
0.351751 -0.163267 0.309963
0.328481 -0.147614 0.239159
0.282825 -0.121168 0.172838
0.213877 -0.090298 0.123775
0.123453 -0.0548322 0.0924348
0.0183743 -0.0107297 0.071028
-0.091607 0.0456793 0.0510712
-0.194724 0.108545 0.0287512
-0.278854 0.169195 0.00791384
-0.335924 0.216256 -0.0053091
-0.360726 0.234322 -0.00668182
-0.353365 0.222046 0.00501191
-0.319481 0.182944 0.0233765
-0.270382 0.127918 0.0394711
0.0290313 0.0600441 -0.059933
0.0732099 0.0440171 -0.0105289
0.124003 0.00139271 0.0671683
0.174531 -0.0568406 0.153975
0.218287 -0.116642 0.227379
0.250631 -0.162254 0.26835
0.267753 -0.180612 0.266587
0.265907 -0.173702 0.229407
0.244368 -0.150344 0.176193
0.204713 -0.117792 0.126631
0.146221 -0.08248 0.0912389
0.0705516 -0.0446187 0.0703652
-0.0167659 -0.000653344 0.0572965
-0.107051 0.0526549 0.0445426
-0.190191 0.110136 0.0281202
-0.255621 0.164017 0.0110326
-0.297051 0.204524 -0.00196827
-0.310856 0.217686 -0.0062521
-0.298191 0.201873 0.000374458
-0.264862 0.162075 0.0135051
-0.221161 0.109552 0.0266832
0.0736831 -0.0678517 0.196275
0.0717687 -0.128501 0.223514
0.0635731 -0.189506 0.214532
0.0483101 -0.229382 0.1744
0.0254556 -0.231185 0.119015
-0.00354819 -0.182492 0.0674912
-0.0387441 -0.0899931 0.0394599
-0.0779899 0.0263223 0.0359817
-0.118728 0.139414 0.0476735
-0.156334 0.223172 0.0645751
-0.182684 0.264828 0.0718371
-0.189632 0.265978 0.0623727
-0.173564 0.239607 0.0358616
-0.135143 0.202931 -0.00413182
-0.0792252 0.169944 -0.0503701
-0.0152369 0.147667 -0.0982941
0.0469108 0.135861 -0.142381
0.0977945 0.124948 -0.171991
0.131386 0.107524 -0.184271
0.144882 0.0832482 -0.177144
0.139293 0.0554715 -0.150685
0.0967879 -0.0864875 0.269473
0.0886979 -0.154772 0.306209
0.0692396 -0.220166 0.293648
0.0394239 -0.259223 0.239342
0.00126189 -0.253772 0.163237
-0.041268 -0.191805 0.088388
-0.0857587 -0.0825011 0.0428384
-0.128201 0.0501627 0.0292518
-0.165569 0.175147 0.0364496
-0.194633 0.263666 0.0524459
-0.208615 0.302931 0.0593901
-0.200086 0.296943 0.0482149
-0.167371 0.262649 0.0181784
-0.11227 0.221447 -0.0263229
-0.0410308 0.189898 -0.0772623
0.0352928 0.175883 -0.129101
0.105794 0.176751 -0.17611
0.159838 0.177761 -0.205729
0.191108 0.167901 -0.216487
0.197709 0.145097 -0.206439
0.182048 0.111141 -0.174933
0.112518 -0.108168 0.327312
0.0962065 -0.181341 0.371852
0.0637947 -0.248012 0.357674
0.0189052 -0.283692 0.29376
-0.0335008 -0.26958 0.201931
-0.0864447 -0.196028 0.107361
-0.134719 -0.074641 0.0447209
-0.172476 0.0680395 0.0178542
-0.197265 0.198756 0.0148521
-0.208944 0.287529 0.0232815
-0.202999 0.322468 0.0244207
-0.174827 0.310117 0.00881267
-0.125344 0.27091 -0.0238216
-0.0583324 0.229707 -0.0681445
0.0192961 0.204803 -0.115381
0.0970093 0.204774 -0.160632
0.163986 0.223895 -0.198922
0.210645 0.24188 -0.219219
0.231793 0.243216 -0.222076
0.227178 0.223251 -0.206793
0.200879 0.182087 -0.172301
0.123811 -0.124753 0.358352
0.0991592 -0.200017 0.409169
0.0550905 -0.26612 0.397706
-0.00256228 -0.29901 0.333313
-0.0656586 -0.278879 0.235947
-0.124865 -0.199224 0.132776
-0.172812 -0.0727563 0.0600242
-0.202376 0.0725723 0.0216659
-0.212521 0.203401 0.00480956
-0.205733 0.29009 -0.00136426
-0.180591 0.322085 -0.014293
-0.135867 0.307886 -0.0413844
-0.0750867 0.270067 -0.0805425
-0.00340377 0.23538 -0.124753
0.0712383 0.222831 -0.163615
0.14022 0.240566 -0.193639
0.194581 0.279667 -0.21284
0.227115 0.314975 -0.21581
0.234389 0.326899 -0.203889
0.218234 0.309192 -0.179964
0.184925 0.259546 -0.143856
0.134187 -0.130669 0.353939
0.103965 -0.206068 0.409455
0.0522372 -0.27167 0.407053
-0.0135246 -0.304725 0.354119
-0.0834541 -0.284509 0.268712
-0.146371 -0.206661 0.174735
-0.193704 -0.0834302 0.104711
-0.218297 0.0579758 0.0600207
-0.219084 0.18519 0.0278686
-0.200658 0.270268 -0.000134517
-0.164158 0.303688 -0.0375064
-0.111266 0.294604 -0.0867857
-0.0474912 0.265804 -0.141112
0.0210823 0.243909 -0.19019
0.0860252 0.247488 -0.221457
0.140016 0.28326 -0.232011
0.176715 0.340089 -0.22446
0.192593 0.38878 -0.201999
0.186497 0.408076 -0.169773
0.162559 0.390247 -0.133766
0.128741 0.331171 -0.0959855
0.147296 -0.121563 0.30539
0.115613 -0.195117 0.360879
0.0610141 -0.26124 0.372348
-0.00855948 -0.298673 0.345354
-0.0825076 -0.285292 0.291999
-0.149485 -0.217959 0.228776
-0.200278 -0.106235 0.177833
-0.22762 0.0253919 0.136781
-0.229902 0.146805 0.093287
-0.21226 0.232472 0.0408755
-0.177018 0.273077 -0.027691
-0.127567 0.276651 -0.10802
-0.0702946 0.263941 -0.18666
-0.0117102 0.259272 -0.248152
0.0395535 0.279476 -0.277459
0.0773783 0.329737 -0.271245
0.0977743 0.397695 -0.235957
0.100589 0.45276 -0.184728
0.0871101 0.47333 -0.128652
0.0629549 0.451748 -0.0790256
0.0365384 0.383217 -0.0401604
0.171919 -0.0953249 0.217612
0.144463 -0.164602 0.268303
0.0923392 -0.232495 0.296201
0.0222887 -0.278561 0.304751
-0.0558886 -0.279036 0.298787
-0.131573 -0.23031 0.284234
-0.195164 -0.137152 0.268966
-0.238932 -0.0200738 0.245123
-0.259257 0.0947403 0.199318
-0.259554 0.183883 0.126122
-0.241353 0.237079 0.0249401
-0.207973 0.259413 -0.0921095
-0.165409 0.267539 -0.203778
-0.120168 0.281643 -0.287803
-0.0809518 0.315595 -0.325171
-0.0541439 0.373787 -0.311036
-0.0420595 0.444064 -0.254343
-0.0426045 0.496528 -0.176894
-0.0528069 0.511573 -0.0972825
-0.066783 0.482846 -0.0330563
-0.0772115 0.406356 0.00865631
0.204951 -0.0509374 0.0955756
0.187113 -0.112749 0.134331
0.142566 -0.182231 0.175799
0.0753205 -0.239876 0.22156
-0.00690243 -0.260195 0.268745
-0.0949141 -0.236797 0.312991
-0.178938 -0.168393 0.345377
-0.250398 -0.0693966 0.35111
-0.302557 0.0379948 0.314747
-0.335027 0.132299 0.230565
-0.346642 0.201112 0.103594
-0.338876 0.245091 -0.0470351
-0.316165 0.275325 -0.192508
-0.284635 0.306556 -0.30327
-0.253313 0.34929 -0.355419
-0.229839 0.407007 -0.34129
-0.216525 0.470041 -0.270977
-0.210389 0.510971 -0.173272
-0.207874 0.514612 -0.0737824
-0.203793 0.476555 0.00352837
-0.193315 0.395165 0.0483589
0.242006 0.00704753 -0.0448076
0.237647 -0.0430796 -0.0252091
0.204592 -0.111946 0.0227669
0.143129 -0.181257 0.0989379
0.0579768 -0.224472 0.194925
-0.0433888 -0.230574 0.297508
-0.151153 -0.190747 0.380287
-0.255676 -0.112955 0.421956
-0.346442 -0.0151833 0.405026
-0.417864 0.0829001 0.322304
-0.46483 0.166223 0.182626
-0.485844 0.230362 0.0100406
-0.483202 0.280264 -0.160961
-0.462596 0.324738 -0.294636
-0.433872 0.370901 -0.362412
-0.406834 0.421604 -0.352932
-0.384692 0.47028 -0.275717
-0.36517 0.493667 -0.16506
-0.345172 0.482431 -0.0523843
-0.320948 0.435391 0.0337926
-0.290183 0.35373 0.0799435
0.281162 0.0691815 -0.176189
0.292091 0.034669 -0.178992
0.27216 -0.0294188 -0.132001
0.218164 -0.106618 -0.036315
0.131716 -0.170665 0.0957284
0.0186654 -0.205718 0.243922
-0.111077 -0.195326 0.368156
-0.246684 -0.141202 0.442884
-0.373926 -0.0569113 0.449649
-0.481781 0.0399807 0.379399
-0.56093 0.132155 0.242442
-0.606676 0.210529 0.0644658
-0.619343 0.27434 -0.117768
-0.604456 0.326804 -0.265053
-0.573181 0.371936 -0.345338
-0.537917 0.412182 -0.343231
-0.503524 0.444119 -0.265917
-0.469378 0.449156 -0.150336
-0.433419 0.423979 -0.0320584
-0.393282 0.370497 0.057576
-0.348865 0.293231 0.102548
0.316683 0.12658 -0.272509
0.342917 0.110214 -0.294529
0.336633 0.0553362 -0.253166
0.29226 -0.0241323 -0.150256
0.208832 -0.103617 -0.000474714
0.0907366 -0.163465 0.171841
-0.0521482 -0.180399 0.319102
-0.20823 -0.150863 0.415083
-0.360417 -0.0840985 0.442399
-0.493493 0.0049086 0.390608
-0.594813 0.0977034 0.269483
-0.657117 0.181881 0.102931
-0.679347 0.252293 -0.073971
-0.666971 0.307668 -0.222182
-0.632356 0.349417 -0.308337
-0.590016 0.379605 -0.313438
-0.546415 0.39706 -0.241133
-0.502746 0.387432 -0.128269
-0.458042 0.352712 -0.0120194
-0.410904 0.297136 0.0756945
-0.362498 0.227847 0.117144
0.34338 0.171995 -0.313138
0.383502 0.173925 -0.344132
0.390692 0.131327 -0.307365
0.358635 0.0551181 -0.205774
0.28472 -0.0327342 -0.0557076
0.171884 -0.110643 0.116689
0.0296152 -0.149966 0.263788
-0.130618 -0.143551 0.362744
-0.290421 -0.0969477 0.399895
-0.432671 -0.0222618 0.365027
-0.543075 0.0623729 0.266404
-0.612962 0.143196 0.123304
-0.640593 0.212729 -0.0346665
-0.631145 0.26695 -0.172348
-0.597388 0.305341 -0.257696
-0.55457 0.329306 -0.269203
-0.509992 0.338421 -0.206336
-0.466167 0.321339 -0.103045
-0.422818 0.283741 0.00445685
-0.379007 0.230959 0.0857371
-0.336257 0.171651 0.122303
0.355826 0.199958 -0.29294
0.407496 0.217819 -0.317913
0.427843 0.188966 -0.278737
0.411277 0.120754 -0.180492
0.354494 0.0320058 -0.0416631
0.258775 -0.0560414 0.111091
0.132544 -0.111391 0.236625
-0.0140259 -0.12513 0.318995
-0.163224 -0.0998705 0.350863
-0.298678 -0.0445703 0.324714
-0.406431 0.0245123 0.247561
-0.477644 0.0943469 0.132414
-0.510326 0.157252 0.000623229
-0.508763 0.208294 -0.119559
-0.484636 0.245548 -0.199887
-0.451953 0.26934 -0.217812
-0.417513 0.278312 -0.168551
-0.384178 0.262521 -0.0805496
-0.351662 0.229345 0.0130846
-0.319185 0.183784 0.0849448
-0.288175 0.134896 0.116682
0.346161 0.208774 -0.225397
0.405979 0.238301 -0.228997
0.439591 0.221564 -0.176994
0.442241 0.163515 -0.0784391
0.410414 0.0796679 0.0452745
0.343369 -0.011108 0.167891
0.247429 -0.0755143 0.258254
0.130083 -0.104633 0.30922
0.00636815 -0.0991745 0.321615
-0.110422 -0.065092 0.293057
-0.208494 -0.0155978 0.230389
-0.279816 0.0387424 0.140364
-0.322043 0.0919567 0.0350273
-0.337526 0.139853 -0.0659713
-0.334929 0.179478 -0.140037
-0.32486 0.209641 -0.165081
-0.311935 0.226591 -0.132652
-0.298078 0.220048 -0.0639305
-0.282267 0.197187 0.0126655
-0.263942 0.161713 0.073687
-0.244484 0.121295 0.101599
0.313541 0.200892 -0.13927
0.378719 0.236103 -0.112359
0.425119 0.226885 -0.0386071
0.449229 0.176659 0.0674579
0.447228 0.0994492 0.179542
0.415759 0.0111917 0.271521
0.357807 -0.0552354 0.323248
0.277604 -0.0926589 0.336381
0.186155 -0.101329 0.320549
0.0925306 -0.085076 0.280512
0.00534037 -0.0538514 0.224073
-0.0686836 -0.014753 0.152795
-0.126401 0.02923 0.069844
-0.167323 0.0758755 -0.0141076
-0.195615 0.121482 -0.0829653
-0.216861 0.162889 -0.116226
-0.231935 0.192534 -0.102572
-0.241129 0.198956 -0.0548981
-0.242342 0.188454 0.00393812
-0.235312 0.161981 0.054404
-0.222263 0.125682 0.0802528
0.259114 0.182425 -0.0675044
0.327445 0.215927 -0.0092448
0.386477 0.207903 0.0899853
0.432707 0.160422 0.209712
0.461487 0.0878642 0.318402
0.467143 0.00425177 0.388574
0.448711 -0.0592167 0.40795
0.405812 -0.0974581 0.385813
0.345179 -0.112191 0.340275
0.271816 -0.106407 0.284288
0.190927 -0.0875172 0.227652
0.108062 -0.0591239 0.168495
0.0280279 -0.020864 0.102701
-0.0450892 0.0275285 0.0326802
-0.110007 0.0818421 -0.0319971
-0.16603 0.135988 -0.0732223
-0.210338 0.179945 -0.0777515
-0.240634 0.199623 -0.0505353
-0.253666 0.198919 -0.00846513
-0.250308 0.177369 0.0326664
-0.234558 0.140077 0.057557
0.187474 0.157302 -0.0333241
0.256794 0.182678 0.0481713
0.327158 0.168445 0.169361
0.393656 0.118441 0.303789
0.450342 0.0470187 0.415693
0.489194 -0.0311611 0.476506
0.505364 -0.0882987 0.476357
0.494202 -0.121325 0.429178
0.457574 -0.134052 0.360409
0.397752 -0.130118 0.290676
0.317048 -0.115463 0.232153
0.220144 -0.0909112 0.181444
0.114132 -0.0531662 0.129382
0.00696612 0.000355803 0.0716747
-0.0942654 0.064345 0.0120854
-0.183114 0.131186 -0.0341632
-0.252857 0.188259 -0.0532069
-0.298339 0.218453 -0.0437147
-0.315499 0.222867 -0.016312
-0.306802 0.200569 0.0163876
-0.279473 0.157686 0.0400724
0.108528 0.129982 -0.0348952
0.175577 0.142311 0.0572911
0.252931 0.116169 0.189676
0.333227 0.0588571 0.330352
0.408567 -0.0139603 0.443423
0.470487 -0.0873231 0.502438
0.510545 -0.136071 0.49632
0.521089 -0.159632 0.438908
0.500162 -0.163804 0.359251
0.448721 -0.153843 0.28375
0.366868 -0.13536 0.225826
0.258555 -0.107612 0.182228
0.132869 -0.065477 0.141583
0.000927026 -0.00482409 0.0954202
-0.125522 0.0680393 0.0433875
-0.236045 0.144284 -0.00257159
-0.320639 0.209642 -0.0296826
-0.371774 0.244519 -0.032749
-0.385589 0.248348 -0.0167327
-0.366091 0.220537 0.00837472
-0.324048 0.169547 0.0296549
0.0405594 0.10386 -0.057168
0.102934 0.101177 0.0300792
0.181315 0.0613295 0.15813
0.265956 -0.00476127 0.29397
0.348474 -0.0804582 0.402782
0.419779 -0.148856 0.461428
0.470265 -0.188498 0.456873
0.490968 -0.200109 0.402202
0.477126 -0.192073 0.324991
0.42983 -0.171245 0.25411
0.347894 -0.143769 0.202922
0.234605 -0.108473 0.168767
0.100199 -0.0595861 0.139862
-0.0424515 0.0076485 0.105653
-0.179384 0.0864801 0.0632754
-0.296408 0.166726 0.0213471
-0.382309 0.23379 -0.00904842
-0.429026 0.267249 -0.0206779
-0.43369 0.265453 -0.0136391
-0.401874 0.229508 0.00469707
-0.346947 0.169985 0.0228334
-0.00414309 0.081659 -0.0835784
0.0517362 0.0656266 -0.0125883
0.124393 0.0146451 0.097252
0.204095 -0.058367 0.21756
0.281818 -0.135099 0.316613
0.349132 -0.197982 0.372916
0.396608 -0.228629 0.373098
0.416573 -0.228927 0.328329
0.403829 -0.209125 0.263202
0.359221 -0.177064 0.204355
0.281483 -0.139697 0.164174
0.173266 -0.0962978 0.140629
0.0446962 -0.0415459 0.122777
-0.091951 0.0290434 0.0998921
-0.221374 0.108456 0.0678609
-0.328624 0.18648 0.0325294
-0.40307 0.24868 0.00337802
-0.437678 0.275629 -0.0118529
-0.431475 0.265764 -0.0105522
-0.391248 0.222523 0.00231583
-0.33122 0.158043 0.0173774
-0.0224355 0.0634296 -0.0946111
0.0239536 0.0387638 -0.0458797
0.0838926 -0.0173775 0.036041
0.149221 -0.0906693 0.130194
0.211807 -0.16343 0.211598
0.264515 -0.219073 0.260004
0.300396 -0.241959 0.26434
0.313043 -0.23412 0.232508
0.299055 -0.206394 0.185277
0.259323 -0.167209 0.143115
0.192541 -0.123648 0.116198
0.101059 -0.0757435 0.10296
-0.00695542 -0.0192832 0.0943072
-0.120252 0.0492219 0.0809975
-0.225365 0.122882 0.0587005
-0.309194 0.19253 0.0316984
-0.363438 0.245813 0.00718666
-0.383102 0.265084 -0.00772316
-0.368827 0.248461 -0.009438
-0.327932 0.201837 -0.00110921
-0.273664 0.138106 0.0105491
0.0420518 -0.10743 0.213329
0.0379619 -0.184878 0.248674
0.0290281 -0.261242 0.245343
0.0137955 -0.312567 0.207163
-0.00933355 -0.320457 0.150088
-0.0396681 -0.273125 0.0936593
-0.0770764 -0.178358 0.059198
-0.117803 -0.0574957 0.0484464
-0.157964 0.0610245 0.0521183
-0.191851 0.151234 0.060171
-0.21032 0.201201 0.0573567
-0.205567 0.213745 0.0367429
-0.175111 0.202597 -0.00124164
-0.121798 0.184414 -0.0517852
-0.0524461 0.171133 -0.106427
0.0212405 0.167026 -0.159523
0.0885157 0.168951 -0.205114
0.13964 0.164666 -0.231668
0.168931 0.146758 -0.236066
0.17552 0.116771 -0.218107
0.162761 0.0804346 -0.179357
0.0593006 -0.124554 0.29085
0.0499384 -0.210151 0.336703
0.0310415 -0.292468 0.329482
0.00246061 -0.34515 0.275853
-0.0352645 -0.348279 0.196445
-0.0790628 -0.290173 0.115196
-0.126688 -0.180805 0.0622623
-0.17203 -0.0454891 0.0409434
-0.21033 0.0833568 0.0395458
-0.237066 0.177317 0.0455165
-0.243881 0.224706 0.0402941
-0.223613 0.231038 0.0151603
-0.175716 0.214123 -0.0292177
-0.10436 0.194532 -0.0863115
-0.017771 0.186272 -0.146409
0.0702076 0.19413 -0.202511
0.147707 0.21167 -0.248926
0.203441 0.221077 -0.272684
0.231197 0.21162 -0.27245
0.230932 0.183267 -0.24876
0.207801 0.140316 -0.202789
0.072889 -0.139955 0.351236
0.0565896 -0.229537 0.404461
0.0265785 -0.313591 0.394465
-0.0152801 -0.364965 0.329641
-0.0659095 -0.362659 0.233171
-0.119325 -0.296607 0.131268
-0.170978 -0.178698 0.0607823
-0.212644 -0.0364563 0.0260471
-0.239939 0.0956219 0.0141246
-0.251349 0.188169 0.0115656
-0.240449 0.230597 -0.00110728
-0.202736 0.231114 -0.0325779
-0.140006 0.210991 -0.080905
-0.0582781 0.193881 -0.13774
0.0339867 0.195048 -0.192275
0.123423 0.219712 -0.238371
0.19804 0.257743 -0.2717
0.247467 0.28546 -0.282054
0.26632 0.287967 -0.270879
0.255983 0.263055 -0.240369
0.223407 0.213041 -0.191693
0.0847876 -0.146121 0.381921
0.0615411 -0.235813 0.440516
0.0217559 -0.319155 0.432167
-0.0305525 -0.369622 0.36643
-0.0896484 -0.365192 0.264425
-0.147559 -0.297847 0.154167
-0.197965 -0.179583 0.0739172
-0.231499 -0.0388678 0.0276725
-0.245379 0.0901711 0.00118981
-0.240654 0.178746 -0.0175189
-0.213828 0.217691 -0.0462418
-0.163526 0.217076 -0.0908127
-0.093729 0.200007 -0.14593
-0.0112479 0.191433 -0.200763
0.0748732 0.206877 -0.242709
0.153466 0.251005 -0.267712
0.214635 0.309973 -0.275669
0.250139 0.3554 -0.263712
0.256399 0.368831 -0.234833
0.23652 0.346756 -0.195574
0.199156 0.288855 -0.14784
0.0977054 -0.13912 0.373615
0.0697844 -0.226275 0.436141
0.0237058 -0.308616 0.437091
-0.0347959 -0.361103 0.38424
-0.0984209 -0.360889 0.296593
-0.157577 -0.300795 0.198004
-0.205375 -0.191127 0.122165
-0.232654 -0.0589313 0.0698878
-0.23708 0.063328 0.0268504
-0.222069 0.148699 -0.0162726
-0.186712 0.188958 -0.0724055
-0.132394 0.194492 -0.141301
-0.0646583 0.188061 -0.211701
0.00951835 0.193734 -0.268704
0.0812201 0.22631 -0.297627
0.141068 0.288732 -0.295904
0.182099 0.364876 -0.269611
0.199923 0.42288 -0.22684
0.193361 0.443234 -0.175451
0.167464 0.421391 -0.125324
0.131918 0.354966 -0.0803066
0.113905 -0.116664 0.316267
0.0846024 -0.199134 0.37836
0.0359893 -0.281301 0.395228
-0.0254051 -0.3401 0.372747
-0.0914108 -0.350964 0.322959
-0.15222 -0.306725 0.260886
-0.200664 -0.213683 0.208119
-0.227973 -0.0954389 0.160855
-0.2319 0.0184893 0.105151
-0.216909 0.103534 0.0341392
-0.183602 0.151408 -0.0574478
-0.135183 0.170835 -0.160864
-0.0778802 0.181825 -0.256832
-0.0184026 0.205366 -0.324336
0.0346456 0.254231 -0.346426
0.0735434 0.329797 -0.321072
0.0943797 0.41486 -0.25971
0.0964507 0.477142 -0.182951
0.0815015 0.497373 -0.106286
0.055862 0.471817 -0.0448119
0.0290911 0.397301 -0.00419995
0.141536 -0.07869 0.215213
0.115191 -0.154546 0.272604