# vtk DataFile Version 2.0
Func
ASCII
DATASET RECTILINEAR_GRID
DIMENSIONS 21 21 21
X_COORDINATES 21 double
-4.7619
-4.28571
-3.80952
-3.33333
-2.85714
-2.38095
-1.90476
-1.42857
-0.952381
-0.47619
0
0.47619
0.952381
1.42857
1.90476
2.38095
2.85714
3.33333
3.80952
4.28571
4.7619
Y_COORDINATES 21 double
-4.7619
-4.28571
-3.80952
-3.33333
-2.85714
-2.38095
-1.90476
-1.42857
-0.952381
-0.47619
0
0.47619
0.952381
1.42857
1.90476
2.38095
2.85714
3.33333
3.80952
4.28571
4.7619
Z_COORDINATES 21 double
-4.7619
-4.28571
-3.80952
-3.33333
-2.85714
-2.38095
-1.90476
-1.42857
-0.952381
-0.47619
0
0.47619
0.952381
1.42857
1.90476
2.38095
2.85714
3.33333
3.80952
4.28571
4.7619
POINT_DATA 9261
SCALARS data double 3
LOOKUP_TABLE default
-0.329351 -0.115855 -0.0789174
-0.341928 -0.13989 -0.07139
-0.318574 -0.153749 -0.044806
-0.265024 -0.150865 -0.00207581
-0.189876 -0.124684 0.0544511
-0.105682 -0.0668365 0.120279
-0.026726 0.0178051 0.182274
0.0352509 0.110453 0.222176
0.0724754 0.187845 0.223899
0.0861999 0.227649 0.17724
0.0822151 0.214996 0.0831218
0.0710626 0.150759 -0.0441899
0.0644148 0.0539812 -0.178399
0.0697447 -0.0420781 -0.287056
0.0871575 -0.107826 -0.345143
0.108348 -0.120352 -0.339259
0.126521 -0.076317 -0.273625
0.134327 0.000702271 -0.171824
0.128375 0.0772592 -0.0695624
0.108609 0.127903 0.00987044
0.0802234 0.138634 0.05108
-0.417436 -0.113269 -0.0816105
-0.439246 -0.154282 -0.0706364
-0.415568 -0.191245 -0.0413458
-0.351066 -0.212537 0.00181674
-0.254963 -0.205304 0.0568397
-0.142185 -0.154576 0.121744
-0.0311585 -0.0615645 0.182846
0.0627576 0.0539046 0.219493
0.12808 0.162658 0.212681
0.163224 0.234108 0.151742
0.173174 0.246253 0.0379969
0.167973 0.195535 -0.11112
0.160652 0.100519 -0.264282
0.160588 -0.00159538 -0.383765
0.169532 -0.0770484 -0.441356
0.180277 -0.0977644 -0.422416
0.187092 -0.0572195 -0.333638
0.183584 0.0208382 -0.205608
0.166652 0.100813 -0.0792642
0.136622 0.153479 0.0175484
0.0991717 0.162535 0.0675948
-0.466521 -0.0952263 -0.0548209
-0.496992 -0.156964 -0.0408133
-0.477255 -0.224583 -0.0142966
-0.409533 -0.2798 0.0187785
-0.301903 -0.301944 0.0586663
-0.169055 -0.266988 0.107892
-0.0314061 -0.170553 0.155444
0.0926599 -0.0329329 0.181197
0.18805 0.110816 0.165715
0.249726 0.22162 0.098044
0.278739 0.26902 -0.0210369
0.283033 0.243182 -0.173216
0.27526 0.159957 -0.325587
0.265966 0.0577998 -0.439214
0.258994 -0.0259055 -0.485738
0.250553 -0.0582363 -0.451189
0.237838 -0.0284184 -0.344458
0.217408 0.0418623 -0.201543
0.187057 0.117807 -0.0639603
0.14729 0.167832 0.0394483
0.103703 0.174503 0.0906142
-0.464434 -0.066465 0.00369917
-0.502183 -0.15053 0.0226379
-0.490637 -0.253154 0.0420342
-0.428748 -0.347944 0.0568802
-0.321842 -0.40588 0.0712055
-0.182432 -0.393629 0.0929731
-0.0308424 -0.300146 0.118759
0.114016 -0.143968 0.130915
0.234232 0.0344214 0.111427
0.319444 0.187508 0.0483908
0.366614 0.275872 -0.0595271
0.380523 0.282195 -0.196003
0.372225 0.217844 -0.330206
0.352685 0.120484 -0.425625
0.328017 0.0300198 -0.456244
0.298467 -0.0164081 -0.409652
0.264538 -0.00287334 -0.296304
0.226605 0.0529432 -0.153954
0.18351 0.119776 -0.0209858
0.136814 0.164951 0.0751379
0.0911504 0.170774 0.117922
-0.408703 -0.0327567 0.095395
-0.452754 -0.137596 0.121582
-0.454439 -0.275014 0.130944
-0.408925 -0.410134 0.12132
-0.317359 -0.506287 0.102548
-0.187937 -0.52071 0.0892019
-0.0383288 -0.436129 0.08896
0.113956 -0.267664 0.0897372
0.248379 -0.0595369 0.0741978
0.349719 0.132876 0.0288192
0.410879 0.261638 -0.0519253
0.432865 0.301665 -0.156694
0.424219 0.258892 -0.260173
0.39557 0.168751 -0.33138
0.355314 0.072762 -0.348013
0.307112 0.0115983 -0.29987
0.255349 0.00661769 -0.197021
0.203718 0.045195 -0.0740457
0.152706 0.101309 0.036538
0.104148 0.141948 0.111673
0.0617217 0.149907 0.138356
-0.302025 -0.00167412 0.207664
-0.350051 -0.123285 0.243346
-0.367664 -0.289736 0.242226
-0.346658 -0.460234 0.205195
-0.283372 -0.591135 0.149391
-0.180522 -0.632679 0.0982347
-0.051599 -0.561806 0.0728434
0.0890666 -0.389265 0.0672701
0.220732 -0.161088 0.0645118
0.324604 0.0614371 0.0490687
0.39056 0.223452 0.0091312
0.416306 0.292943 -0.0516222
0.407568 0.270357 -0.116378
0.373941 0.18801 -0.162458
0.325208 0.0882075 -0.172022
0.267974 0.01415 -0.137204
0.208598 -0.00787783 -0.0658583
0.153311 0.0147799 0.0160585
0.103161 0.06157 0.0862679
0.059935 0.100092 0.129296
0.0263017 0.113723 0.136569
-0.163251 0.0212967 0.323205
-0.211581 -0.110866 0.367541
-0.244454 -0.296356 0.354594
-0.251467 -0.49207 0.289979
-0.224351 -0.64986 0.198842
-0.159904 -0.715532 0.114247
-0.0662693 -0.661133 0.0704979
0.0469475 -0.492765 0.0671257
0.160229 -0.257269 0.0860199
0.253282 -0.0185612 0.108147
0.314554 0.164039 0.11376
0.339469 0.253384 0.0976173
0.33112 0.245348 0.0673775
0.297596 0.169133 0.0375376
0.249034 0.0672842 0.0223577
0.194123 -0.0153603 0.02866
0.13963 -0.0488874 0.0528068
0.0918509 -0.0360972 0.0810908
0.0520212 0.00629644 0.103158
0.0205188 0.0469533 0.11161
-0.00070394 0.069416 0.102946
-0.00715923 0.0303612 0.424779
-0.0501663 -0.104144 0.47267
-0.0935337 -0.29559 0.44434
-0.125714 -0.501546 0.351136
-0.135172 -0.672969 0.227176
-0.113365 -0.754976 0.114624
-0.0627852 -0.716396 0.0594852
0.0119791 -0.560581 0.0652516
0.0944868 -0.332176 0.111135
0.165111 -0.0945229 0.173086
0.212847 0.0917572 0.222717
0.232309 0.187043 0.245957
0.224501 0.184406 0.242239
0.195752 0.110712 0.219389
0.155667 0.00846976 0.189409
0.112855 -0.0768406 0.159197
0.07338 -0.113413 0.130457
0.0418387 -0.101249 0.103757
0.0181451 -0.0558271 0.0787485
0.001048 -0.00811717 0.0568291
-0.00818082 0.025627 0.0392803
0.1485 0.0248812 0.496767
0.116783 -0.103146 0.539594
0.0702852 -0.286617 0.490111
0.0206301 -0.486678 0.366301
-0.0189053 -0.656957 0.211157
-0.0358348 -0.745477 0.0750105
-0.0279275 -0.72108 0.0132636
0.00529945 -0.584758 0.0314493
0.0514169 -0.376956 0.104817
0.0932734 -0.157218 0.203489
0.122067 0.0157802 0.290921
0.133034 0.102798 0.345634
0.12577 0.0961502 0.360863
0.104675 0.0214413 0.339832
0.0779528 -0.0791074 0.2935
0.0527531 -0.160315 0.229187
0.0326951 -0.190492 0.153595
0.0196219 -0.169229 0.0811111
0.0122443 -0.112926 0.0190637
0.00767652 -0.0535772 -0.0242209
0.00651109 -0.00780949 -0.0434487
0.279914 0.0075038 0.527606
0.262767 -0.106172 0.55554
0.221072 -0.268564 0.4796
0.164756 -0.44779 0.324638
0.107114 -0.603087 0.141833
0.0627303 -0.688509 -0.0119894
0.0370617 -0.675467 -0.0760065
0.0345821 -0.563514 -0.0450391
0.0468946 -0.387205 0.0515597
0.0603269 -0.199364 0.178185
0.0692491 -0.05372 0.292171
0.0705749 0.0134771 0.367558
0.0632886 -0.00439952 0.394529
0.0500833 -0.0821626 0.374173
0.0371787 -0.178392 0.31715
0.029404 -0.249251 0.230735
0.0272449 -0.264979 0.124702
0.0294857 -0.227005 0.0235657
0.0336244 -0.154604 -0.0603344
0.0358202 -0.0809317 -0.113475
0.0367555 -0.0245822 -0.127634
0.370913 -0.0189774 0.514506
0.369489 -0.111798 0.51936
0.338799 -0.242502 0.414585
0.286152 -0.388168 0.231464
0.223362 -0.516046 0.0276971
0.165218 -0.588826 -0.136007
0.118736 -0.582742 -0.197765
0.0909701 -0.496761 -0.155075
0.077074 -0.358508 -0.0419807
0.0671802 -0.212094 0.101172
0.0590978 -0.104009 0.228611
0.0518556 -0.065427 0.313542
0.0443904 -0.100415 0.346631
0.0379187 -0.18339 0.32924
0.0362601 -0.274071 0.272051
0.0416081 -0.330701 0.181214
0.051441 -0.326742 0.0666098
0.0620738 -0.26729 -0.0426925
0.0702211 -0.175893 -0.13233
0.072207 -0.0873761 -0.185517
0.0696173 -0.0226886 -0.192078
0.40861 -0.050527 0.461655
0.420577 -0.118698 0.439741
0.403667 -0.210988 0.309374
0.362146 -0.314536 0.106946
0.305261 -0.405962 -0.106016
0.2463 -0.458234 -0.268121
0.19224 -0.453964 -0.321018
0.151212 -0.392255 -0.26705
0.12115 -0.293508 -0.14463
0.095771 -0.192333 0.0029084
0.0759657 -0.126744 0.130237
0.062776 -0.121622 0.213592
0.05547 -0.177535 0.247542
0.0540579 -0.267847 0.235765
0.0597819 -0.353484 0.188896
0.0723484 -0.395041 0.110648
0.0868968 -0.369764 0.00788743
0.0984251 -0.287601 -0.0917938
0.103509 -0.176952 -0.174473
0.0998293 -0.0747857 -0.221813
0.0905084 -0.00472105 -0.222483
0.389008 -0.0818546 0.378289
0.409228 -0.124512 0.331326
0.405281 -0.176603 0.184572
0.378412 -0.235053 -0.0224782
0.334749 -0.285995 -0.227891
0.284766 -0.313151 -0.373135
0.234135 -0.306179 -0.407848
0.190763 -0.264744 -0.341102
0.154501 -0.202428 -0.215145
0.122031 -0.144644 -0.074208
0.096567 -0.120723 0.0403138
0.0806611 -0.14899 0.111184
0.0741225 -0.226306 0.139691
0.0760692 -0.324814 0.133308
0.0853535 -0.406777 0.10251
0.0996806 -0.435197 0.0475405
0.112811 -0.391013 -0.030181
0.119693 -0.289186 -0.10936
0.117385 -0.162469 -0.178103
0.105793 -0.0499475 -0.217916
0.0898267 0.0225877 -0.216872
0.319286 -0.107921 0.276158
0.341663 -0.127194 0.210537
0.347554 -0.142011 0.060898
0.335529 -0.157992 -0.1327
0.308527 -0.169773 -0.311509
0.27349 -0.171129 -0.423215
0.234047 -0.158549 -0.42931
0.196943 -0.132359 -0.346856
0.163067 -0.100137 -0.221194
0.131218 -0.079258 -0.095447
0.105908 -0.0911365 -0.00428864
0.0904605 -0.148196 0.0439865
0.0852391 -0.244106 0.0590583
0.0888158 -0.350166 0.0531279
0.0982846 -0.430168 0.0366636
0.11016 -0.449352 0.00617835
0.117832 -0.391674 -0.0433422
0.117247 -0.276369 -0.0991075
0.106445 -0.139211 -0.152351
0.0878258 -0.0206829 -0.185721
0.0676826 0.0514663 -0.186906
0.218074 -0.124594 0.169739
0.237782 -0.124707 0.0940875
0.249867 -0.109302 -0.0447789
0.250715 -0.0904644 -0.208322
0.240378 -0.0698439 -0.344282
0.222319 -0.0493133 -0.409377
0.197975 -0.0309583 -0.379268
0.172274 -0.0153852 -0.279336
0.146425 -0.00511294 -0.157031
0.120497 -0.0111824 -0.0525742
0.0992963 -0.0487297 0.00798324
0.0862385 -0.125835 0.0264373
0.082218 -0.234263 0.0212257
0.0856616 -0.345304 0.00932971
0.0928099 -0.424492 0.00104249
0.099846 -0.438838 -0.0107261
0.100796 -0.374217 -0.0371737
0.0928858 -0.25276 -0.0742199
0.0752639 -0.111409 -0.11575
0.0526102 0.0081233 -0.145381
0.0321733 0.0771768 -0.150284
0.108742 -0.128735 0.070118
0.123647 -0.115478 -0.00764571
0.139347 -0.0798052 -0.125352
0.150749 -0.0375631 -0.247628
0.155579 0.00482201 -0.330481
0.15414 0.0396613 -0.341691
0.145881 0.0611558 -0.272218
0.134071 0.069428 -0.155246
0.119485 0.0658161 -0.0389316
0.102665 0.0437331 0.0405794
0.0877973 -0.00757978 0.0666564
0.0777945 -0.0937306 0.0510588
0.0739454 -0.206151 0.0202205
0.0749476 -0.317201 -0.00474222
0.0773665 -0.394659 -0.0137571
0.0783971 -0.407049 -0.0172004
0.072768 -0.341138 -0.0312117
0.0591177 -0.22015 -0.057963
0.0376374 -0.0812305 -0.0922279
0.0142595 0.0336587 -0.119149
-0.00325033 0.0973483 -0.126251
0.0130818 -0.120932 -0.0140132
0.02382 -0.100427 -0.088168
0.042214 -0.0550522 -0.179526
0.06242 -0.00177231 -0.257016
0.0803807 0.0503586 -0.285709
0.094023 0.0905945 -0.244624
0.101167 0.111406 -0.13951
0.103449 0.11428 -0.00973183
0.101054 0.103503 0.0976075
0.0943826 0.0751499 0.1511
0.0864923 0.0210442 0.143118
0.079483 -0.0636481 0.0939167
0.074762 -0.171427 0.0359652
0.0715008 -0.276807 -0.00674178
0.0677162 -0.350369 -0.0244147
0.0620138 -0.362029 -0.0300849
0.0500613 -0.298985 -0.0426064
0.0320332 -0.18375 -0.0663545
0.0092178 -0.0528343 -0.0963599
-0.0124626 0.0535711 -0.120057
-0.0258607 0.110005 -0.124913
-0.0532058 -0.103596 -0.0725648
-0.0446288 -0.0814222 -0.138084
-0.0239799 -0.035849 -0.20237
0.00260979 0.0172483 -0.23989
0.0298786 0.0680811 -0.224443
0.0545536 0.105376 -0.144997
0.0736135 0.121657 -0.0182652
0.0874174 0.120187 0.113836
0.0957423 0.107101 0.207853
0.0985553 0.0798197 0.237893
0.0974341 0.0314137 0.203358
0.0933104 -0.0432933 0.129428
0.0872294 -0.138798 0.0508409
0.0788099 -0.232718 -0.00757691
0.0680244 -0.29909 -0.0371365
0.055504 -0.309694 -0.0516
0.0382638 -0.251971 -0.069123
0.0178175 -0.146521 -0.0932208
-0.0040791 -0.027928 -0.119482
-0.0222131 0.0671144 -0.139011
-0.0311855 0.115232 -0.138678
-0.084577 -0.0804618 -0.103508
-0.0772206 -0.0602951 -0.158443
-0.0560826 -0.0210219 -0.200287
-0.0270179 0.0237239 -0.208141
0.00470142 0.0648127 -0.164392
0.0356259 0.0924673 -0.0651041
0.0625417 0.100728 0.0663359
0.085115 0.0950571 0.189469
0.102095 0.0824524 0.266367
0.112893 0.0609567 0.276835
0.117628 0.0239673 0.225364
0.11606 -0.0347651 0.138784
0.108613 -0.112393 0.0507418
0.0952313 -0.190358 -0.0155968
0.0777478 -0.246624 -0.0535723
0.0588768 -0.255404 -0.0761031
0.037239 -0.204249 -0.0995655
0.0152515 -0.111068 -0.12527
-0.00478189 -0.00739262 -0.149375
-0.0189376 0.0744236 -0.1638
-0.0239119 0.113583 -0.156186
-0.086914 -0.056176 -0.108112
-0.0799707 -0.0401082 -0.152108
-0.0599744 -0.0105338 -0.177865
-0.0320107 0.0215151 -0.168863
-0.000658348 0.0487114 -0.113441
0.031079 0.0637826 -0.0132337
0.0605764 0.0630716 0.107056
0.0871341 0.0538905 0.211431
0.108755 0.0431928 0.269132
0.124227 0.0292788 0.265219
0.132606 0.00559574 0.207283
0.132701 -0.0351244 0.120926
0.124256 -0.0925954 0.0358912
0.107457 -0.152316 -0.0285171
0.0855082 -0.196436 -0.0677342
0.0623206 -0.202357 -0.0935542
0.0387228 -0.15822 -0.120126
0.0176549 -0.0787687 -0.147093
0.000819813 0.008578 -0.168923
-0.00956558 0.0761636 -0.17814
-0.0113579 0.106428 -0.164186
-0.0697031 -0.0358014 -0.0924922
-0.0635228 -0.0241823 -0.125362
-0.0471046 -0.00435894 -0.14055
-0.0242246 0.0154147 -0.12571
0.00199354 0.0296559 -0.0736845
0.0294986 0.0333699 0.0112052
0.0565288 0.025046 0.106996
0.0823474 0.0130157 0.185395
0.104684 0.00385168 0.223694
0.121716 -0.00364541 0.211912
0.131504 -0.0155402 0.158553
0.132403 -0.0393951 0.0851789
0.123767 -0.0769225 0.0152066
0.106059 -0.11814 -0.0374005
0.0830448 -0.149164 -0.0700551
0.0597043 -0.15138 -0.0932658
0.037274 -0.114382 -0.118167
0.0188845 -0.0499047 -0.143493
0.00559538 0.0196895 -0.162116
-0.00174001 0.0725492 -0.167754
-0.00194036 0.0941595 -0.151449
-0.412418 -0.132499 -0.0614744
-0.434628 -0.154579 -0.0571207
-0.412169 -0.164068 -0.0359089
-0.34981 -0.154818 0.0007065
-0.257091 -0.119773 0.0528739
-0.149826 -0.0478849 0.117414
-0.0466835 0.0551441 0.181037
0.0369406 0.167517 0.224668
0.0903128 0.260861 0.229287
0.113234 0.309802 0.181603
0.11222 0.296192 0.0814311
0.0987734 0.220706 -0.0561678
0.0870892 0.105917 -0.202611
0.0869949 -0.00863088 -0.321982
0.0994479 -0.0871666 -0.387008
0.116281 -0.101116 -0.382893
0.130871 -0.0461989 -0.313449
0.135956 0.0458224 -0.203666
0.127225 0.136321 -0.0911125
0.10474 0.1941 -0.00252374
0.0744799 0.201264 0.0454015
-0.515384 -0.131154 -0.0581968
-0.549725 -0.174355 -0.0539039
-0.527836 -0.211082 -0.0345397
-0.452122 -0.229069 -0.00200122
-0.332622 -0.213553 0.0458973
-0.188665 -0.147306 0.10816
-0.0441217 -0.0321707 0.171217
0.0804802 0.108232 0.213195
0.16981 0.238598 0.211508
0.219665 0.323613 0.151213
0.235619 0.336831 0.0318766
0.227868 0.274203 -0.128055
0.212187 0.158529 -0.294166
0.201015 0.0347454 -0.424221
0.198101 -0.0555922 -0.4872
0.197448 -0.0772575 -0.466706
0.194693 -0.0224618 -0.369406
0.184337 0.0752899 -0.228797
0.162872 0.173557 -0.0889931
0.130056 0.235643 0.0179364
0.0916083 0.239868 0.0729863
-0.567911 -0.113807 -0.0244741
-0.611497 -0.183415 -0.0197508
-0.593291 -0.256726 -0.00753144
-0.512117 -0.313304 0.00994373
-0.376863 -0.329392 0.0386323
-0.207051 -0.278947 0.0822517
-0.0290208 -0.15747 0.130653
0.132774 0.00994153 0.162615
0.258546 0.1811 0.154522
0.340032 0.310331 0.0904187
0.3778 0.36171 -0.0313676
0.379292 0.324532 -0.191555
0.359825 0.219393 -0.353814
0.333493 0.0937562 -0.474358
0.30712 -0.0058417 -0.521908
0.279661 -0.038115 -0.481003
0.250613 0.00926257 -0.360997
0.218321 0.103562 -0.20236
0.180654 0.201694 -0.0506462
0.137367 0.263174 0.0609661
0.0933181 0.26406 0.112601
-0.558045 -0.0845053 0.0431671
-0.607686 -0.182542 0.0518017
-0.596787 -0.297528 0.053599
-0.520381 -0.399602 0.0479398
-0.384375 -0.455269 0.0462462
-0.205782 -0.429302 0.0584635
-0.0107972 -0.310049 0.0832298
0.175388 -0.120747 0.102246
0.330159 0.0901056 0.0929029
0.438854 0.266627 0.037805
0.497096 0.362965 -0.0675892
0.508478 0.360342 -0.20639
0.48631 0.274944 -0.344557
0.445184 0.154166 -0.441006
0.39504 0.0479131 -0.46727
0.339639 0.00262768 -0.409836
0.282922 0.0361555 -0.280229
0.227978 0.118973 -0.12189
0.174442 0.210605 0.0227443
0.123019 0.268758 0.122515
0.0771534 0.26831 0.159338
-0.484953 -0.0490873 0.145864
-0.538413 -0.172874 0.163237
-0.539964 -0.329131 0.153836
-0.480759 -0.477973 0.120266
-0.362246 -0.576881 0.0808869
-0.196156 -0.581328 0.0540119
-0.00519575 -0.472594 0.0507754
0.187681 -0.27027 0.058855
0.357252 -0.0261144 0.0562597
0.483566 0.194373 0.0238627
0.557493 0.335961 -0.0478796
0.578245 0.371281 -0.147779
0.555924 0.310618 -0.248041
0.50433 0.199159 -0.313972
0.435995 0.0886666 -0.321606
0.358122 0.0296655 -0.26024
0.279214 0.045934 -0.141361
0.206562 0.112643 -0.00581923
0.142081 0.194531 0.110739
0.0871805 0.248771 0.182836
0.0440358 0.250339 0.196662
-0.3523 -0.014885 0.26945
-0.407057 -0.159066 0.299369
-0.42464 -0.349817 0.279835
-0.393074 -0.539953 0.216944
-0.308752 -0.679129 0.137186
-0.176375 -0.715677 0.0693369
-0.0130659 -0.624167 0.0397615
0.162576 -0.419146 0.0425751
0.326002 -0.153057 0.0559596
0.453802 0.101333 0.0589649
0.533312 0.281161 0.0348018
0.55999 0.351142 -0.0139374
0.540197 0.315202 -0.068929
0.485791 0.214906 -0.104904
0.410413 0.102584 -0.103056
0.323639 0.031512 -0.055651
0.236125 0.0309017 0.0278341
0.158046 0.0814252 0.115801
0.0926359 0.153559 0.183952
0.0417249 0.205416 0.216331
0.00658506 0.212612 0.204545
-0.185002 0.0126159 0.394277
-0.237605 -0.143554 0.436391
-0.271284 -0.3564 0.406148
-0.272776 -0.576321 0.314719
-0.23346 -0.747646 0.19732
-0.150268 -0.813977 0.0942347
-0.0331964 -0.744081 0.0466837
0.105763 -0.546162 0.0541164
0.244359 -0.272766 0.0932283
0.358395 0.000306007 0.139466
0.433494 0.205184 0.166909
0.462554 0.300382 0.168182
0.448192 0.284068 0.151551
0.399537 0.193779 0.13324
0.32955 0.0815665 0.128141
0.249393 0.0022884 0.142732
0.169419 -0.0106439 0.171899
0.0998343 0.0285633 0.197818
0.0444703 0.0947697 0.209466
0.00438947 0.147771 0.200711
-0.0193206 0.163742 0.169509
0.000640025 0.0269321 0.500969
-0.0440273 -0.130612 0.549396
-0.0889745 -0.349808 0.504504
-0.121072 -0.582214 0.383599
-0.128357 -0.771529 0.231395
-0.100383 -0.85992 0.0993539
-0.0394233 -0.81138 0.0417487
0.0494966 -0.630225 0.0615989
0.148588 -0.365576 0.132097
0.235499 -0.0924283 0.223397
0.29645 0.119642 0.299614
0.323478 0.225576 0.343548
0.315988 0.219396 0.35455
0.28002 0.135195 0.341706
0.226603 0.0243543 0.317765
0.165686 -0.0577574 0.289258
0.106319 -0.0752875 0.256975
0.0562508 -0.0386425 0.219457
0.0179954 0.0284652 0.17704
-0.00854588 0.0871115 0.13381
-0.0217082 0.114139 0.0934849
0.185762 0.0270182 0.572459
0.155736 -0.120405 0.61692
0.107894 -0.329252 0.550287
0.053888 -0.555593 0.397163
0.00736813 -0.74649 0.211541
-0.0156038 -0.846247 0.0550387
-0.0107552 -0.817722 -0.00762316
0.024026 -0.661284 0.0278487
0.0764892 -0.420493 0.129671
0.12831 -0.165648 0.26175
0.168341 0.035346 0.378831
0.189547 0.136757 0.45557
0.188976 0.130439 0.484784
0.169428 0.0480153 0.470838
0.138887 -0.0600638 0.425825
0.104494 -0.138882 0.356753
0.0716053 -0.152136 0.269925
0.0444151 -0.108753 0.179984
0.024037 -0.0328456 0.0960876
0.0092846 0.035936 0.0302086
0.00216604 0.0748845 -0.00901518
0.3433 0.0156409 0.596907
0.331727 -0.111835 0.625448
0.289925 -0.294941 0.530243
0.226431 -0.498298 0.343476
0.154712 -0.675607 0.127754
0.0941559 -0.776218 -0.0471102
0.0537131 -0.764598 -0.110537
0.0412544 -0.638108 -0.0596419
0.049961 -0.433145 0.0680781
0.06658 -0.211875 0.230313
0.0837863 -0.0374212 0.374824
0.0967705 0.0465426 0.471556
0.10132 0.0316314 0.510468
0.0974853 -0.0521124 0.494051
0.0897109 -0.155591 0.434666
0.081503 -0.225349 0.339247
0.0737092 -0.226469 0.217376
0.0665579 -0.168717 0.0955204
0.0595335 -0.0784872 -0.0113948
0.0509166 0.00370889 -0.0856458
0.0436734 0.0533866 -0.115061
0.453429 -0.00485855 0.573246
0.461241 -0.104628 0.575759
0.432368 -0.249975 0.448312
0.371526 -0.416221 0.230298
0.290385 -0.566334 -0.00876441
0.209179 -0.657226 -0.194053
0.139338 -0.657477 -0.254046
0.0925744 -0.562405 -0.189722
0.0667076 -0.400375 -0.0443271
0.05369 -0.223141 0.134625
0.0503988 -0.0866628 0.291447
0.0548248 -0.0302816 0.395593
0.0624508 -0.0609247 0.438212
0.0711714 -0.149179 0.422622
0.0817712 -0.247519 0.36178
0.0940222 -0.304651 0.261264
0.104486 -0.288377 0.130475
0.110069 -0.211257 0.00109629
0.108942 -0.103337 -0.109726
0.0998101 -0.00668687 -0.180856
0.0871752 0.052058 -0.19774
0.499523 -0.0314148 0.508568
0.523114 -0.0995579 0.480425
0.509668 -0.199992 0.323747
0.460109 -0.319829 0.0837319
0.383222 -0.432687 -0.166023
0.297774 -0.504725 -0.349665
0.215496 -0.510495 -0.399823
0.149811 -0.444291 -0.323504
0.102008 -0.326427 -0.169185
0.0686459 -0.197508 0.0123265
0.0504147 -0.105051 0.166061
0.0479768 -0.082604 0.265418
0.0572719 -0.134358 0.3066
0.0746698 -0.230535 0.295917
0.0975437 -0.324983 0.246683
0.122392 -0.368708 0.161545
0.14245 -0.332864 0.0460704
0.152631 -0.234293 -0.0699616
0.15044 -0.107438 -0.170178
0.136015 0.00332936 -0.23197
0.1157 0.068612 -0.239293
0.475192 -0.0592924 0.414884
0.507194 -0.0958454 0.358034
0.50704 -0.15022 0.182351
0.472538 -0.220723 -0.0633968
0.409149 -0.291588 -0.305202
0.332346 -0.338908 -0.470634
0.25238 -0.344229 -0.501372
0.182434 -0.301639 -0.412219
0.125996 -0.224155 -0.256079
0.0830681 -0.141789 -0.0847604
0.0572282 -0.0933398 0.0515948
0.0510987 -0.106001 0.134316
0.0615688 -0.180613 0.167765
0.0841005 -0.286511 0.162715
0.113322 -0.378847 0.132481
0.143299 -0.410922 0.0755534
0.165311 -0.3573 -0.00915318
0.173799 -0.239555 -0.0994345
0.166328 -0.0961796 -0.181647
0.145182 0.0260369 -0.233183
0.118454 0.095367 -0.237096
0.388312 -0.0839019 0.305255
0.420154 -0.0927762 0.227323
0.428322 -0.105385 0.0482509
0.408593 -0.129817 -0.182642
0.363268 -0.15958 -0.394894
0.303479 -0.180353 -0.523681
0.236892 -0.180829 -0.523969
0.174994 -0.155428 -0.41938
0.122161 -0.110969 -0.266153
0.0803965 -0.068415 -0.114857
0.0548458 -0.0585492 -0.00755573
0.0490056 -0.102584 0.0476581
0.060842 -0.198149 0.0649804
0.0854561 -0.313739 0.060504
0.115845 -0.405836 0.0475391
0.144835 -0.429819 0.020163
0.163193 -0.363116 -0.0303987
0.166213 -0.231594 -0.0919653
0.152198 -0.0766514 -0.155104
0.125747 0.0533093 -0.198674
0.0960228 0.123841 -0.204935
0.261704 -0.101217 0.194411
0.286604 -0.0889593 0.10544
0.297934 -0.0688282 -0.0611856
0.290357 -0.0559094 -0.258018
0.263642 -0.0511876 -0.421974
0.224491 -0.0484082 -0.499407
0.177747 -0.0424541 -0.46103
0.132133 -0.028186 -0.339391
0.091835 -0.00740832 -0.192729
0.0594467 0.00582224 -0.0683275
0.0403017 -0.012819 0.00207188
0.0377184 -0.079858 0.0221403
0.0506991 -0.190689 0.0161116
0.0745562 -0.313532 0.00531883
0.101976 -0.40633 0.00267455
0.125743 -0.426056 -0.00198936
0.137678 -0.352061 -0.0246382
0.134244 -0.213392 -0.0635438
0.114678 -0.0525186 -0.112808
0.0858672 0.0802527 -0.15215
0.0576387 0.149051 -0.163243
0.124933 -0.107806 0.091926
0.140023 -0.0823987 0.000927698
0.151271 -0.041459 -0.141347
0.153356 -0.00372458 -0.291195
0.144189 0.0249573 -0.394861
0.126473 0.0444577 -0.412437
0.102299 0.0552329 -0.331797
0.0777706 0.0627604 -0.193571
0.0558257 0.0688527 -0.0563262
0.0384248 0.0640902 0.0373051
0.0297874 0.0288574 0.0668524
0.0321517 -0.0503441 0.0475186
0.0452412 -0.16801 0.0125421
0.0650687 -0.292973 -0.0123158
0.0855193 -0.385161 -0.0147437
0.10123 -0.402851 -0.00869533
0.105009 -0.326555 -0.0160992
0.0950702 -0.186637 -0.0426181
0.07186 -0.0262251 -0.083541
0.0432261 0.103656 -0.12014
0.0193844 0.168168 -0.134407
0.00617209 -0.103514 0.0047168
0.0127742 -0.0728215 -0.0820756
0.0236843 -0.0231841 -0.19405
0.0341849 0.0259803 -0.292731
0.0410504 0.0664616 -0.334612
0.0438761 0.094111 -0.293603
0.0425096 0.106574 -0.174458
0.0403473 0.109891 -0.0240942
0.0389407 0.108588 0.100784
0.0387558 0.0957944 0.162941
0.0421589 0.0550017 0.152677
0.0498573 -0.0257371 0.0949406
0.0618023 -0.14126 0.0295912
0.0749209 -0.262072 -0.014627
0.085721 -0.350783 -0.0260176
0.0909298 -0.367097 -0.0218124
0.084984 -0.292449 -0.0270857
0.0681542 -0.156618 -0.0498502
0.0423102 -0.00252085 -0.0859158
0.0152031 0.120272 -0.118838
-0.00407382 0.178425 -0.130814
-0.074422 -0.090014 -0.058115
-0.0726011 -0.0606094 -0.135333
-0.0610175 -0.0126128 -0.216061
-0.043741 0.0362309 -0.2686
-0.0246502 0.0773063 -0.25951
-0.00580153 0.104911 -0.17498
0.0113367 0.115445 -0.0324758
0.0280793 0.115857 0.118797
0.0448399 0.112155 0.226918
0.0604356 0.0986407 0.261099
0.0749679 0.0608038 0.220051
0.0872957 -0.0126703 0.134272
0.0969264 -0.11782 0.0458495
0.101646 -0.227888 -0.0156867
0.101049 -0.309134 -0.0403418
0.0947509 -0.323465 -0.0461677
0.0792805 -0.253213 -0.0570463
0.0567826 -0.126178 -0.0799666
0.0299284 0.0164338 -0.111343
0.00565721 0.128607 -0.138847
-0.00923213 0.17924 -0.144501
-0.110521 -0.0703102 -0.0951809
-0.110419 -0.0462109 -0.160606
-0.0980376 -0.00659232 -0.214799
-0.0768899 0.033561 -0.232088
-0.0505538 0.0666893 -0.189328
-0.0215053 0.0873655 -0.0814831
0.00833153 0.0923393 0.0659298
0.0391037 0.0897985 0.205868
0.0696409 0.0862844 0.293396
0.0973821 0.0765836 0.304505
0.12035 0.0474918 0.244019
0.135732 -0.0122565 0.144097
0.142209 -0.100589 0.0451148
0.138236 -0.194447 -0.0254698
0.126119 -0.264621 -0.0602784
0.108662 -0.276136 -0.0759517
0.0845538 -0.212183 -0.0939269
0.0573586 -0.0975892 -0.1184
0.0305574 0.0297038 -0.146374
0.00961148 0.128533 -0.166808
-0.00125483 0.171143 -0.163298
-0.110273 -0.0488375 -0.105857
-0.109478 -0.031604 -0.158856
-0.0966234 -0.00341909 -0.193349
-0.0746372 0.0238747 -0.189618
-0.0463777 0.0446624 -0.132019
-0.0139706 0.0549899 -0.0221622
0.0211296 0.0528702 0.112448
0.0585174 0.0475771 0.230325
0.0958995 0.0452626 0.295397
0.129696 0.0410283 0.289881
0.15658 0.0228502 0.222362
0.172594 -0.0204042 0.123244
0.175586 -0.0886006 0.0279116
0.164591 -0.162932 -0.0409237
0.143759 -0.219331 -0.0780965
0.117836 -0.22709 -0.0985986
0.0884817 -0.170771 -0.120667
0.0599926 -0.0714244 -0.146371
0.0354302 0.0377297 -0.170726
0.0182756 0.121245 -0.183774
0.0109889 0.155791 -0.172006
-0.086825 -0.0307697 -0.0944878
-0.0847742 -0.0196788 -0.134137
-0.0730985 -0.00210886 -0.154699
-0.0539567 0.0131501 -0.142258
-0.0290423 0.022355 -0.0871047
0.000346106 0.022974 0.00616527
0.0333373 0.0143932 0.112793
0.0694879 0.00623889 0.200582
0.106165 0.00419453 0.243132
0.139448 0.00406718 0.228622
0.165176 -0.00439244 0.166785
0.179268 -0.031514 0.0829962
0.179254 -0.0787441 0.00487699
0.164567 -0.132303 -0.0512874
0.140106 -0.173248 -0.0823951
0.111875 -0.176329 -0.101354
0.0822328 -0.128481 -0.122422
0.0558579 -0.0468592 -0.146246
0.0355465 0.0414025 -0.165912
0.0227263 0.108075 -0.173403
0.018343 0.134358 -0.157898
-0.445247 -0.120161 -0.0316204
-0.475814 -0.135943 -0.0332412
-0.459874 -0.138101 -0.0231162
-0.400322 -0.122643 0.000470656
-0.306062 -0.0826825 0.0410844
-0.193034 -0.00551304 0.0982395
-0.081343 0.102875 0.159727
0.0114327 0.220609 0.205813
0.0729304 0.318331 0.214915
0.102349 0.369737 0.171369
0.1048 0.355104 0.0730331
0.0917394 0.274631 -0.0656668
0.0781633 0.152099 -0.215865
0.0748686 0.0295696 -0.340528
0.0834138 -0.0540813 -0.411239
0.0965019 -0.0669605 -0.412222
0.108598 -0.00428757 -0.346019
0.113466 0.0957622 -0.237206
0.105985 0.193076 -0.122151
0.0858662 0.253284 -0.0294387
0.0592062 0.2554 0.0243267
-0.548154 -0.118577 -0.0200821
-0.591208 -0.155822 -0.0261924
-0.57588 -0.184772 -0.0236951
-0.501779 -0.195122 -0.00958421
-0.378368 -0.17246 0.0232813
-0.225473 -0.0986136 0.0765514
-0.0686649 0.0236465 0.138462
0.0686413 0.170449 0.185719
0.168829 0.30508 0.192296
0.226979 0.3911 0.139496
0.246535 0.400495 0.0242955
0.237375 0.329205 -0.135484
0.216218 0.202102 -0.30457
0.196885 0.067601 -0.438725
0.184515 -0.0285198 -0.50542
0.175072 -0.0468931 -0.486975
0.165989 0.0204908 -0.389153
0.153317 0.131784 -0.246394
0.132932 0.241593 -0.102789
0.103786 0.308599 0.0073697
0.0710239 0.306826 0.0649922
-0.593556 -0.103153 0.0204873
-0.643923 -0.167773 0.0116784
-0.630554 -0.233581 0.0018258
-0.548715 -0.281095 -0.00416626
-0.406884 -0.287575 0.00589019
-0.225419 -0.227231 0.0383863
-0.0323893 -0.0967897 0.0861375
0.144679 0.0777823 0.125993
0.28316 0.252422 0.130053
0.37413 0.380135 0.0775805
0.415208 0.423824 -0.0362438
0.413175 0.373505 -0.192793
0.38418 0.252918 -0.3545
0.344031 0.114203 -0.475061
0.301594 0.00905005 -0.521617
0.259137 -0.0166255 -0.477761
0.218857 0.0493348 -0.352505
0.180985 0.163824 -0.18893
0.143153 0.279121 -0.0336795
0.104194 0.348519 0.0776315
0.0672932 0.342971 0.125642
-0.572083 -0.0769608 0.09451
-0.625006 -0.171037 0.0882686
-0.615766 -0.278782 0.0649409
-0.535973 -0.370608 0.0315858
-0.391168 -0.414443 0.00766566
-0.199224 -0.376772 0.00657526
0.0118098 -0.247818 0.0305051
0.213974 -0.0515695 0.0595151
0.382064 0.161135 0.0659888
0.500365 0.333095 0.0272702
0.561254 0.417875 -0.0649028
0.567339 0.398187 -0.194519
0.53252 0.294295 -0.326301
0.473176 0.159233 -0.416704
0.401737 0.0486254 -0.435977
0.325959 0.013805 -0.370324
0.253114 0.0719032 -0.231727
0.188779 0.18124 -0.0677433
0.132893 0.295055 0.0775363
0.0850727 0.363934 0.171322
0.0466802 0.356923 0.196607
-0.486266 -0.0449098 0.202711
-0.539109 -0.165314 0.206452
-0.538944 -0.314397 0.171648
-0.474005 -0.452012 0.108542
-0.345592 -0.537371 0.0445164
-0.166329 -0.529342 0.00244364
0.0397478 -0.411306 -0.00209825
0.247463 -0.203405 0.01716
0.429375 0.0403299 0.0332659
0.564512 0.253256 0.0217104
0.640623 0.380223 -0.0313207
0.65567 0.395961 -0.115916
0.619918 0.315433 -0.203388
0.548664 0.189999 -0.257105
0.457006 0.0773182 -0.252503
0.355858 0.0326713 -0.179194
0.257215 0.0787132 -0.0499131
0.171521 0.176951 0.0892701
0.101602 0.284716 0.201418
0.0483006 0.351525 0.260646
0.0113885 0.34623 0.254971
-0.341532 -0.0127571 0.330422
-0.392613 -0.153625 0.349676
-0.406213 -0.337234 0.306447
-0.368104 -0.515493 0.214276
-0.274752 -0.640456 0.108995
-0.131545 -0.66504 0.0248611
0.0436514 -0.565779 -0.00635249
0.231133 -0.357271 0.00861591
0.404944 -0.0937956 0.043185
0.540771 0.151033 0.0709027
0.623169 0.314956 0.070248
0.645947 0.365047 0.0420644