# vtk DataFile Version 2.0
Func
ASCII
DATASET RECTILINEAR_GRID
DIMENSIONS 21 21 21
X_COORDINATES 21 double
-4.7619
-4.28571
-3.80952
-3.33333
-2.85714
-2.38095
-1.90476
-1.42857
-0.952381
-0.47619
0
0.47619
0.952381
1.42857
1.90476
2.38095
2.85714
3.33333
3.80952
4.28571
4.7619
Y_COORDINATES 21 double
-4.7619
-4.28571
-3.80952
-3.33333
-2.85714
-2.38095
-1.90476
-1.42857
-0.952381
-0.47619
0
0.47619
0.952381
1.42857
1.90476
2.38095
2.85714
3.33333
3.80952
4.28571
4.7619
Z_COORDINATES 21 double
-4.7619
-4.28571
-3.80952
-3.33333
-2.85714
-2.38095
-1.90476
-1.42857
-0.952381
-0.47619
0
0.47619
0.952381
1.42857
1.90476
2.38095
2.85714
3.33333
3.80952
4.28571
4.7619
POINT_DATA 9261
SCALARS data double 3
LOOKUP_TABLE default
-0.184466 0.0220272 -0.114979
-0.186484 0.0105577 -0.141723
-0.160461 -0.0150394 -0.149422
-0.108816 -0.0546864 -0.1322
-0.0352281 -0.102518 -0.0874054
0.0536049 -0.146331 -0.0158331
0.146745 -0.174573 0.0671511
0.23273 -0.182907 0.143326
0.29949 -0.17213 0.19685
0.33857 -0.145942 0.217066
0.344152 -0.113151 0.20373
0.315762 -0.0833106 0.164044
0.259367 -0.064554 0.109006
0.185304 -0.061771 0.0494968
0.106263 -0.0726906 -0.00609874
0.0353199 -0.0923968 -0.0531638
-0.0212062 -0.11431 -0.0911815
-0.0602404 -0.127212 -0.114432
-0.0808416 -0.123765 -0.120111
-0.0852586 -0.104581 -0.109087
-0.076273 -0.0739732 -0.0847811
-0.201111 0.0417298 -0.132192
-0.197576 0.0223859 -0.165407
-0.160785 -0.0193186 -0.177242
-0.0939819 -0.0809244 -0.159929
-0.00301348 -0.153419 -0.108696
0.103234 -0.220344 -0.0228689
0.211176 -0.265586 0.0790964
0.307361 -0.279927 0.174195
0.378327 -0.262215 0.241638
0.415204 -0.216933 0.26845
0.412542 -0.156451 0.254404
0.369932 -0.0955236 0.209376
0.294946 -0.0479447 0.14792
0.199799 -0.0232998 0.0838177
0.0996889 -0.0218108 0.0262524
0.00951535 -0.0391796 -0.0215702
-0.0626873 -0.0665921 -0.0609242
-0.112758 -0.0894664 -0.0863883
-0.138632 -0.0982799 -0.0957346
-0.142322 -0.090199 -0.089587
-0.126555 -0.068471 -0.0704522
-0.174288 0.058293 -0.12181
-0.161812 0.0303072 -0.161142
-0.116114 -0.0278729 -0.181777
-0.0413387 -0.111585 -0.173599
0.055025 -0.209105 -0.12827
0.162919 -0.299187 -0.0430951
0.268019 -0.361185 0.0632948
0.356781 -0.380772 0.165715
0.416854 -0.354168 0.240138
0.44103 -0.286198 0.27188
0.424618 -0.192876 0.26082
0.368134 -0.094968 0.218954
0.27996 -0.0131006 0.163373
0.172945 0.0374379 0.109305
0.0623755 0.0529306 0.0646303
-0.0365397 0.0368741 0.0300397
-0.115643 0.000773224 0.000456856
-0.170195 -0.0367202 -0.0214147
-0.197157 -0.0631747 -0.0337413
-0.198226 -0.0716411 -0.0366665
-0.175898 -0.0633371 -0.0307324
-0.105059 0.0602794 -0.0816733
-0.08168 0.0235975 -0.126286
-0.0305268 -0.0480871 -0.161089
0.0433229 -0.147825 -0.172275
0.131299 -0.26275 -0.146241
0.223352 -0.368644 -0.0792967
0.306615 -0.441826 0.0143066
0.369892 -0.462791 0.109371
0.40446 -0.424938 0.180965
0.405474 -0.333114 0.213159
0.370782 -0.206507 0.206341
0.302436 -0.0718317 0.174155
0.208912 0.043298 0.135269
0.102053 0.117755 0.104787
-0.00478375 0.144104 0.0877086
-0.0982905 0.125342 0.0802685
-0.171513 0.0763918 0.0726183
-0.22056 0.0202087 0.0616719
-0.242693 -0.0273216 0.0496293
-0.239054 -0.0546604 0.0368273
-0.211147 -0.060824 0.0257741
-0.00545475 0.0392827 -0.0187492
0.0272139 -0.00463904 -0.0683466
0.0778069 -0.0833478 -0.12197
0.140227 -0.188506 -0.161152
0.20631 -0.307844 -0.167546
0.267117 -0.416741 -0.135135
0.313521 -0.491006 -0.0709694
0.338711 -0.507143 0.00315215
0.33815 -0.4555 0.0626059
0.310726 -0.340901 0.0911801
0.257832 -0.184813 0.0898328
0.1833 -0.0191213 0.0729602
0.0948347 0.122291 0.0595271
0.00173963 0.21315 0.0630758
-0.0867612 0.242744 0.0842873
-0.161114 0.214634 0.114056
-0.217044 0.147446 0.137024
-0.252101 0.0689038 0.143491
-0.264787 -0.00078122 0.134379
-0.255272 -0.0464014 0.113004
-0.224171 -0.0646417 0.0848787
0.0980034 -0.00812366 0.0521447
0.136141 -0.0565543 0.000281232
0.180512 -0.132783 -0.0711263
0.224054 -0.229789 -0.140485
0.259519 -0.337597 -0.18502
0.280391 -0.434252 -0.195803
0.282174 -0.49753 -0.171077
0.263187 -0.501696 -0.12791
0.224262 -0.434353 -0.0890069
0.168513 -0.300212 -0.0693648
0.101084 -0.122008 -0.067537
0.0274837 0.0643387 -0.0691753
-0.0460558 0.219989 -0.056063
-0.113795 0.314941 -0.0169344
-0.171767 0.336686 0.0441675
-0.215696 0.290536 0.113057
-0.244825 0.199805 0.169671
-0.259077 0.0973067 0.197621
-0.258398 0.00730961 0.195968
-0.24235 -0.0525109 0.169699
-0.210761 -0.0779986 0.128105
0.169652 -0.0765797 0.10791
0.206354 -0.126546 0.0543399
0.238847 -0.191261 -0.0314377
0.259556 -0.267672 -0.125783
0.262791 -0.349873 -0.202921
0.244702 -0.420833 -0.25128
0.205289 -0.462203 -0.262224
0.147706 -0.447774 -0.248546
0.0775691 -0.363867 -0.230616
0.00171973 -0.21474 -0.222019
-0.0715626 -0.0234683 -0.220888
-0.135639 0.171347 -0.213149
-0.186189 0.327582 -0.181464
-0.221365 0.413262 -0.116511
-0.242477 0.415981 -0.0257021
-0.251062 0.343954 0.0728394
-0.249869 0.22569 0.156019
-0.241165 0.0995749 0.20306
-0.226411 -0.00676838 0.210697
-0.204631 -0.0748429 0.185398
-0.175158 -0.101017 0.139
0.187357 -0.156586 0.134003
0.213714 -0.205397 0.0796119
0.228806 -0.25216 -0.0136397
0.225381 -0.299207 -0.121515
0.199643 -0.345551 -0.217225
0.150234 -0.38098 -0.28781
0.0806921 -0.392144 -0.321102
-0.00227947 -0.355146 -0.327137
-0.0897454 -0.255269 -0.324398
-0.172412 -0.0965771 -0.325387
-0.240209 0.0982322 -0.328142
-0.286311 0.289277 -0.319114
-0.308443 0.433001 -0.281708
-0.308356 0.497318 -0.207726
-0.291903 0.47184 -0.105592
-0.265407 0.368964 0.00477884
-0.234948 0.222295 0.099696
-0.204667 0.075183 0.15741
-0.17692 -0.0414041 0.173105
-0.150584 -0.110577 0.153717
-0.124769 -0.131079 0.1124
0.144703 -0.231132 0.122164
0.15249 -0.277246 0.0681668
0.146384 -0.304503 -0.0237582
0.120541 -0.320593 -0.130275
0.0732181 -0.328961 -0.226338
0.00498713 -0.326707 -0.298763
-0.0786354 -0.306257 -0.335552
-0.1692 -0.246768 -0.345952
-0.256463 -0.133255 -0.347641
-0.330408 0.0300291 -0.352661
-0.380941 0.221128 -0.359598
-0.402182 0.400029 -0.355942
-0.393852 0.523277 -0.325936
-0.360579 0.560121 -0.261644
-0.311398 0.503509 -0.169853
-0.25588 0.370337 -0.0695046
-0.202071 0.198786 0.0180514
-0.155357 0.0360613 0.0739336
-0.118464 -0.0851802 0.092893
-0.0902326 -0.150225 0.0819851
-0.0693251 -0.160949 0.0538415
0.0511012 -0.281915 0.0713321
0.0349853 -0.324402 0.0179773
0.00741767 -0.335208 -0.0646138
-0.035504 -0.326226 -0.155526
-0.0935747 -0.303941 -0.233512
-0.16503 -0.271394 -0.286151
-0.24413 -0.225732 -0.30589
-0.322727 -0.149066 -0.303317
-0.391468 -0.0265302 -0.296438
-0.441514 0.137143 -0.297613
-0.464607 0.320652 -0.306623
-0.456954 0.484452 -0.312461
-0.420113 0.586098 -0.300342
-0.360596 0.596943 -0.261895
-0.288852 0.513735 -0.199959
-0.215633 0.357449 -0.129984
-0.149341 0.169506 -0.0683465
-0.0954842 -0.00090015 -0.0273849
-0.0561978 -0.121226 -0.0116761
-0.0302884 -0.179522 -0.014532
-0.0155623 -0.18038 -0.0251465
-0.0635583 -0.297042 -0.00647531
-0.102808 -0.335565 -0.0599172
-0.147784 -0.336472 -0.128528
-0.20011 -0.313618 -0.194501
-0.258029 -0.274517 -0.241689
-0.319255 -0.225603 -0.259447
-0.379133 -0.166736 -0.2476
-0.431291 -0.0819656 -0.219391
-0.468869 0.0433116 -0.193751
-0.485477 0.203734 -0.183895
-0.475921 0.378305 -0.191197
-0.439209 0.528231 -0.20658
-0.378574 0.612561 -0.216569
-0.301548 0.604968 -0.212185
-0.218534 0.505619 -0.191236
-0.139769 0.338481 -0.164066
-0.0726258 0.146254 -0.140449
-0.021726 -0.0222893 -0.123982
0.0121851 -0.136604 -0.117507
0.0305239 -0.187429 -0.114759
0.0366694 -0.181556 -0.107614
-0.163007 -0.272648 -0.0921962
-0.218355 -0.307247 -0.146592
-0.272602 -0.306421 -0.200367
-0.325283 -0.283335 -0.238922
-0.373729 -0.244402 -0.251506
-0.415575 -0.196245 -0.229963
-0.447873 -0.138904 -0.182479
-0.466691 -0.056818 -0.124936
-0.468355 0.0643887 -0.0767844
-0.449378 0.218737 -0.0520664
-0.408049 0.385112 -0.0537266
-0.346338 0.52556 -0.0749305
-0.268997 0.600756 -0.104062
-0.18397 0.586491 -0.131999
-0.100685 0.485251 -0.151939
-0.0277656 0.322357 -0.168733
0.0293823 0.139519 -0.185314
0.0677554 -0.0174403 -0.196336
0.0885328 -0.121707 -0.202404
0.093667 -0.166214 -0.197512
0.0880491 -0.15896 -0.176335
-0.215228 -0.213662 -0.163924
-0.275136 -0.244522 -0.219117
-0.328396 -0.249445 -0.260093
-0.373139 -0.238649 -0.275177
-0.406492 -0.215739 -0.258449
-0.426144 -0.184489 -0.204617
-0.430683 -0.142616 -0.129054
-0.41836 -0.0733855 -0.0488632
-0.388308 0.0373976 0.0174534
-0.339568 0.183378 0.0558108
-0.273467 0.343083 0.0622644
-0.194515 0.479496 0.0413481
-0.108843 0.554946 0.00217551
-0.0245503 0.546934 -0.0470072
0.0501849 0.45872 -0.0966298
0.108711 0.315105 -0.147013
0.147935 0.15458 -0.195461
0.166824 0.0176568 -0.22959
0.168645 -0.0738432 -0.247962
0.156236 -0.114387 -0.244543
0.13618 -0.111879 -0.216182
-0.201795 -0.132776 -0.20176
-0.253368 -0.159955 -0.25554
-0.296215 -0.175573 -0.286871
-0.327915 -0.185563 -0.286418
-0.34596 -0.189817 -0.252096
-0.347946 -0.187027 -0.181665
-0.33308 -0.170636 -0.0946038
-0.30068 -0.121633 -0.00680941
-0.251433 -0.0260641 0.0662707
-0.18579 0.109727 0.112017
-0.106953 0.263922 0.126567
-0.0210786 0.400683 0.112432
0.0644811 0.484078 0.075699
0.14143 0.492955 0.0224345
0.202494 0.429825 -0.0378419
0.242586 0.317277 -0.102981
0.260732 0.188769 -0.167057
0.257849 0.0777344 -0.214336
0.23902 0.000473334 -0.241885
0.208218 -0.0383006 -0.24316
0.173592 -0.0459387 -0.216255
-0.127256 -0.0483109 -0.197563
-0.160861 -0.0719129 -0.246004
-0.187534 -0.099633 -0.270251
-0.205457 -0.132703 -0.263189
-0.212717 -0.167276 -0.225167
-0.206564 -0.196466 -0.156616
-0.185619 -0.208793 -0.0775477
-0.148829 -0.182545 -4.41984e-05
-0.0967975 -0.104358 0.0656408
-0.0300286 0.0197146 0.110127
0.0478718 0.167869 0.130826
0.130169 0.306022 0.128671
0.208577 0.40043 0.106366
0.274476 0.431293 0.0665344
0.320816 0.399394 0.0157979
0.343244 0.323827 -0.0436893
0.34246 0.231828 -0.105428
0.320764 0.148898 -0.15406
0.284346 0.0862805 -0.186052
0.238466 0.0476808 -0.194425
0.192387 0.027314 -0.176937
-0.0111297 0.0210985 -0.152768
-0.0223141 0.00122094 -0.189985
-0.0321668 -0.0358846 -0.207345
-0.0402638 -0.0880835 -0.199978
-0.0452577 -0.148771 -0.170212
-0.0436534 -0.205598 -0.120343
-0.0322837 -0.242334 -0.0670872
-0.00833572 -0.236322 -0.0164113
0.0293824 -0.174778 0.0281002
0.0815817 -0.0633502 0.0621571
0.145576 0.0767317 0.0855323
0.215092 0.213858 0.0981024
0.281333 0.317133 0.0990395
0.335253 0.368457 0.0865736
0.369345 0.36669 0.0620831
0.3794 0.326801 0.0256396
0.366483 0.26989 -0.0180573
0.333842 0.213596 -0.0577013
0.287894 0.164781 -0.08978
0.234779 0.126142 -0.106577
0.184156 0.0934001 -0.105335
0.116217 0.0653305 -0.0789234
0.125862 0.0492336 -0.0989622
0.128803 0.00762014 -0.107436
0.123764 -0.0560046 -0.102132
0.111858 -0.133234 -0.0869228
0.0974065 -0.208093 -0.0657312
0.0861519 -0.260615 -0.0489573
0.0836241 -0.26847 -0.0352254
0.0939936 -0.220714 -0.0210197
0.120006 -0.122221 -0.00437193
0.160821 0.00702385 0.0175388
0.21136 0.13865 0.0440862
0.262821 0.245344 0.0712168
0.305764 0.311231 0.0925392
0.331991 0.333491 0.103136
0.336543 0.323272 0.0996573
0.320066 0.295874 0.0832813
0.286384 0.261935 0.0586088
0.241447 0.224987 0.0294961
0.191576 0.186426 0.00357711
0.145409 0.143927 -0.0149353
0.217403 0.0808647 -0.000109088
0.241711 0.068735 -0.00236864
0.251477 0.0284927 -0.00225675
0.244035 -0.0368048 0.000617148
0.220552 -0.118397 0.00117092
0.185872 -0.198759 -0.0056027
0.148208 -0.256397 -0.0235059
0.115984 -0.270718 -0.0445553
0.0961092 -0.233211 -0.0595164
0.0933854 -0.147901 -0.0611494
0.10906 -0.0328134 -0.043792
0.139537 0.0876097 -0.00800918
0.176514 0.19028 0.0400258
0.210527 0.262078 0.090333
0.232814 0.299242 0.132937
0.237482 0.309643 0.160806
0.224488 0.303635 0.170969
0.198072 0.286292 0.161618
0.162509 0.258746 0.136762
0.124127 0.221109 0.104211
0.0894175 0.173079 0.0690551
0.270109 0.0713868 0.0620252
0.302013 0.0627457 0.0756498
0.314105 0.0283362 0.0847964
0.302814 -0.0301134 0.0874907
0.268972 -0.104522 0.0785223
0.217251 -0.178224 0.0518628
0.157179 -0.230343 0.00935275
0.0989049 -0.244018 -0.0372725
0.0524264 -0.212839 -0.0747387
0.024016 -0.14042 -0.0919779
0.0167688 -0.0422564 -0.0813689
0.0287044 0.0616382 -0.0430693
0.0526492 0.152895 0.0158235
0.0796881 0.221548 0.0834327
0.100929 0.263813 0.146678
0.110311 0.284973 0.195574
0.106941 0.291522 0.224355
0.0939506 0.28445 0.226209
0.0739301 0.263675 0.206504
0.0520171 0.228501 0.171125
0.0327872 0.179881 0.125796
0.270619 0.0466795 0.0944834
0.30264 0.0408938 0.118489
0.313372 0.0148923 0.134763
0.298877 -0.0308641 0.139143
0.259547 -0.0902063 0.126011
0.199378 -0.148839 0.0903214
0.127741 -0.18863 0.0364036
0.0550104 -0.197247 -0.022341
-0.00737385 -0.16991 -0.0715716
-0.0517754 -0.110115 -0.0981513
-0.0743138 -0.0304862 -0.0939094
-0.0756591 0.0534991 -0.0586548
-0.0615697 0.128192 0.00058675
-0.0399548 0.186783 0.071977
-0.0188613 0.226128 0.141312
-0.00392318 0.249771 0.197708
0.00291359 0.261361 0.234161
0.00371233 0.259424 0.242408
-0.000428819 0.243235 0.227174
-0.00630449 0.211904 0.193076
-0.01103 0.167288 0.145943
0.226834 0.0208264 0.0948811
0.253149 0.0177539 0.121899
0.260921 0.00093774 0.141102
0.246363 -0.0306241 0.147368
0.209215 -0.0728353 0.135248
0.152388 -0.114145 0.101071
0.0836106 -0.139981 0.0497991
0.0120075 -0.14229 -0.00663728
-0.0516574 -0.117806 -0.0554154
-0.100024 -0.0696447 -0.0837228
-0.128523 -0.00761995 -0.0842167
-0.137221 0.0567459 -0.0564359
-0.130291 0.113716 -0.00637745
-0.113752 0.158713 0.0558716
-0.0937882 0.18973 0.117336
-0.0756322 0.209379 0.16801
-0.0615297 0.219794 0.201537
-0.0506866 0.218568 0.210925
-0.0430405 0.204951 0.1993
-0.0372503 0.178082 0.170175
-0.0316841 0.140843 0.129823
-0.203608 0.0481924 -0.120505
-0.209254 0.04147 -0.15843
-0.183464 0.0151926 -0.176569
-0.125571 -0.0311028 -0.16574
-0.0379002 -0.0915509 -0.11963
0.0720187 -0.151222 -0.039018
0.190811 -0.193852 0.0588103
0.303975 -0.212201 0.152302
0.395459 -0.20595 0.221473
0.45212 -0.178636 0.251875
0.465319 -0.141049 0.242208
0.432576 -0.105862 0.200546
0.360706 -0.0841986 0.139577
0.262692 -0.0825369 0.0715636
0.155385 -0.0981144 0.00587956
0.0563976 -0.124666 -0.0531165
-0.0244276 -0.152844 -0.104506
-0.0814043 -0.168069 -0.139767
-0.112311 -0.16117 -0.154272
-0.119895 -0.134251 -0.146789
-0.108385 -0.0933454 -0.120397
-0.214097 0.0723251 -0.133347
-0.214042 0.0554781 -0.180183
-0.177209 0.00966881 -0.205646
-0.103307 -0.0625313 -0.197203
0.00331082 -0.151162 -0.145264
0.132647 -0.237083 -0.0491613
0.268431 -0.298763 0.0706875
0.393594 -0.323119 0.186797
0.490271 -0.307145 0.273134
0.544414 -0.255625 0.311942
0.547771 -0.183631 0.301461
0.497502 -0.110296 0.252812
0.402411 -0.0537806 0.182955
0.277658 -0.0262496 0.107755
0.143416 -0.0282014 0.0375057
0.0198563 -0.0538868 -0.0250351
-0.0807077 -0.0908294 -0.0807738
-0.151014 -0.120082 -0.120626
-0.187457 -0.129735 -0.140519
-0.192635 -0.117551 -0.138631
-0.171517 -0.0879402 -0.116553
-0.17149 0.0906162 -0.115594
-0.159919 0.0622206 -0.168456
-0.112509 -0.00349992 -0.204228
-0.0302331 -0.101212 -0.206779
0.0805774 -0.217704 -0.16236
0.2089 -0.328998 -0.0677117
0.337777 -0.408345 0.0569452
0.450484 -0.436737 0.181241
0.530507 -0.407758 0.274911
0.566291 -0.326916 0.318071
0.550616 -0.213653 0.308823
0.481914 -0.094493 0.260923
0.370083 0.00398703 0.194701
0.231043 0.0626279 0.128173
0.0850604 0.076591 0.0703408
-0.0474298 0.0507662 0.0210475
-0.1539 0.0012729 -0.0247931
-0.226624 -0.0478312 -0.060783
-0.261137 -0.0813286 -0.0836454
-0.260195 -0.0916353 -0.0909678
-0.229264 -0.0801202 -0.0819408
-0.0778541 0.0895872 -0.0653798
-0.0508374 0.0497891 -0.121514
0.0047152 -0.0316013 -0.171638
0.0856728 -0.147023 -0.195246
0.184159 -0.281802 -0.172919
0.289623 -0.409026 -0.0995307
0.38725 -0.499068 0.00981882
0.463591 -0.526585 0.124475
0.50701 -0.481757 0.212708
0.509546 -0.370194 0.253306
0.467506 -0.215046 0.245027
0.381778 -0.0500364 0.203956
0.262631 0.0897229 0.152903
0.12474 0.177876 0.110301
-0.0140128 0.204785 0.0823771
-0.135826 0.174869 0.0637473
-0.230251 0.108448 0.0436935
-0.291196 0.0348252 0.0217781
-0.315197 -0.0271273 0.00131236
-0.305008 -0.063672 -0.0153898
-0.265534 -0.0728654 -0.0239075
0.0511672 0.0605013 0.0076754
0.0932301 0.0123204 -0.0499046
0.151495 -0.076058 -0.117699
0.220049 -0.19599 -0.170314
0.290693 -0.333629 -0.183866
0.354916 -0.461874 -0.149619
0.402614 -0.551125 -0.0746087
0.426485 -0.571399 0.0139832
0.420304 -0.508705 0.0846246
0.381854 -0.368524 0.116336
0.312371 -0.176557 0.108991
0.215844 0.0273228 0.0802246
0.101972 0.200379 0.0540526
-0.0176114 0.309846 0.0477571
-0.130235 0.341678 0.0631426
-0.22315 0.301019 0.0887526
-0.290165 0.212446 0.106924
-0.328032 0.110793 0.108653
-0.335552 0.0194483 0.0947607
-0.315078 -0.042738 0.0705621
-0.270535 -0.0705268 0.0436769
0.183898 0.000944766 0.0879106
0.236826 -0.051399 0.0323376
0.291543 -0.134861 -0.0512561
0.339355 -0.242931 -0.134501
0.372332 -0.365028 -0.189761
0.385397 -0.476976 -0.204307
0.374353 -0.552112 -0.175278
0.338797 -0.557879 -0.124785
0.279479 -0.476441 -0.0821359
0.200617 -0.312769 -0.0659124
0.108627 -0.0938414 -0.0750411
0.0105406 0.135816 -0.0911771
-0.0854437 0.327533 -0.0903231
-0.172 0.44389 -0.057182
-0.24322 0.46817 0.00490082
-0.293361 0.407592 0.0787294
-0.321683 0.291868 0.140542
-0.328846 0.161578 0.171906
-0.316293 0.0441571 0.170461
-0.286114 -0.0380305 0.142773
-0.24089 -0.0783647 0.100601
0.274884 -0.0816194 0.150215
0.329694 -0.1335 0.0965688
0.373646 -0.200566 0.000694473
0.396199 -0.282058 -0.10764
0.390552 -0.372675 -0.198493
0.355229 -0.453582 -0.255568
0.291734 -0.503253 -0.268489
0.205962 -0.4882 -0.254694
0.104875 -0.3889 -0.240305
-0.00180037 -0.209006 -0.241232
-0.103417 0.0243701 -0.255188
-0.190831 0.263828 -0.263487
-0.258079 0.456934 -0.242578
-0.302635 0.563851 -0.179087
-0.32544 0.567613 -0.0802299
-0.328506 0.47867 0.0320939
-0.31612 0.332395 0.129894
-0.292649 0.175493 0.187898
-0.261889 0.0385191 0.20026
-0.225415 -0.0547845 0.174722
-0.184322 -0.0985614 0.125966
0.296214 -0.17523 0.179167
0.340357 -0.222776 0.127245
0.365258 -0.265656 0.0259426
0.360222 -0.310358 -0.0952012
0.320351 -0.358536 -0.20578
0.247324 -0.398295 -0.28802
0.147108 -0.414064 -0.327893
0.0301269 -0.375011 -0.339415
-0.0923711 -0.260207 -0.345843
-0.207219 -0.0722065 -0.360837
-0.301435 0.162579 -0.381256
-0.365393 0.395648 -0.388585
-0.395807 0.573184 -0.359972
-0.394758 0.655338 -0.283426
-0.369249 0.627394 -0.16768
-0.327643 0.504626 -0.0370033
-0.278785 0.327705 0.0790936
-0.229537 0.148705 0.152695
-0.184982 0.00155595 0.175858
-0.145966 -0.0920533 0.156721
-0.112377 -0.129578 0.11167
0.240118 -0.260664 0.165945
0.261202 -0.301826 0.115626
0.260039 -0.318974 0.0177389
0.227927 -0.325555 -0.0999185
0.162506 -0.329298 -0.209474
0.0676636 -0.326029 -0.293742
-0.0480534 -0.307023 -0.339001
-0.172152 -0.244944 -0.357857
-0.29161 -0.118457 -0.371698
-0.39249 0.0704381 -0.3928
-0.461878 0.296442 -0.418002
-0.491563 0.511411 -0.429839
-0.481118 0.662157 -0.406706
-0.436521 0.710796 -0.337395
-0.369259 0.646744 -0.229397
-0.292032 0.490524 -0.106207
-0.216165 0.287615 0.00475245
-0.149925 0.0940461 0.0777138
-0.0985477 -0.0547669 0.104445
-0.0619142 -0.1402 0.0934608
-0.0382311 -0.164204 0.0607768
0.119414 -0.317318 0.108522
0.108917 -0.351923 0.0586326
0.0789391 -0.348163 -0.0278256
0.0243727 -0.324573 -0.126546
-0.0542608 -0.292983 -0.214163
-0.151964 -0.255578 -0.275707
-0.259708 -0.209183 -0.302575
-0.365606 -0.130043 -0.308158
-0.457558 0.00291965 -0.313137
-0.523674 0.18759 -0.32958
-0.553578 0.399568 -0.355268
-0.542302 0.591802 -0.374668
-0.492294 0.71297 -0.368006
-0.412354 0.728321 -0.324362
-0.316336 0.63232 -0.24741
-0.218609 0.450354 -0.156864
-0.130691 0.231277 -0.0746619
-0.0605033 0.0329165 -0.019351
-0.0119337 -0.109807 0.00215246
0.0164017 -0.182371 -0.00175682
0.0283974 -0.190714 -0.0168062
-0.0280088 -0.332197 0.0191126
-0.0705975 -0.361417 -0.0325219
-0.126065 -0.346068 -0.103261
-0.195125 -0.306634 -0.172972
-0.274545 -0.256179 -0.224074
-0.359155 -0.200652 -0.24528
-0.441019 -0.140122 -0.236477
-0.51073 -0.0534826 -0.213275
-0.559081 0.0797179 -0.196362
-0.578083 0.256592 -0.198505
-0.561474 0.453116 -0.2191
-0.508618 0.623627 -0.245294
-0.424687 0.719359 -0.259786
-0.320264 0.709161 -0.251873
-0.209726 0.592411 -0.220111
-0.106913 0.398193 -0.178411
-0.0216837 0.176617 -0.140973
0.0397974 -0.015468 -0.115824
0.0761098 -0.145716 -0.107084
0.0901584 -0.203817 -0.106576
0.0881178 -0.199042 -0.102838
-0.155958 -0.301747 -0.0825598
-0.222251 -0.327408 -0.137879
-0.293508 -0.311686 -0.192576
-0.3664 -0.273498 -0.230742
-0.435695 -0.224097 -0.24087
-0.496616 -0.169856 -0.21614
-0.543101 -0.111183 -0.166172
-0.569018 -0.0280706 -0.108868
-0.568895 0.0991463 -0.0646119
-0.539222 0.266307 -0.0470831
-0.47833 0.449147 -0.0574753
-0.390006 0.603417 -0.0861329
-0.281848 0.683086 -0.118934
-0.165332 0.660484 -0.145877
-0.0540923 0.538835 -0.160659
0.0400025 0.349105 -0.170746
0.109855 0.140225 -0.181987
0.15192 -0.0348365 -0.191087
0.167809 -0.148197 -0.198741
0.162091 -0.193261 -0.197016
0.143303 -0.181282 -0.177586
-0.224296 -0.232585 -0.172793
-0.299133 -0.256526 -0.231991
-0.372383 -0.250477 -0.273159
-0.43807 -0.22894 -0.28428
-0.490046 -0.198903 -0.259388
-0.524033 -0.163948 -0.196163
-0.535739 -0.122019 -0.112797
-0.52193 -0.0525633 -0.0280801
-0.480448 0.0631625 0.0393426
-0.411581 0.219601 0.0756183
-0.317572 0.391892 0.0782411
-0.205745 0.537225 0.0535455
-0.0856811 0.612309 0.0118412
0.0308297 0.592476 -0.0385494
0.131462 0.483038 -0.0882644
0.206835 0.314714 -0.139228
0.252855 0.132801 -0.190097
0.268812 -0.0163236 -0.228186
0.259285 -0.110576 -0.251143
0.230481 -0.14623 -0.251246
0.193173 -0.134672 -0.222863
-0.211338 -0.139835 -0.228367
-0.277318 -0.163137 -0.288636
-0.338712 -0.173236 -0.319637
-0.388926 -0.178604 -0.312508
-0.422012 -0.180698 -0.265933
-0.433936 -0.177843 -0.181679
-0.421267 -0.163265 -0.0831326
-0.382286 -0.114625 0.0125121
-0.316766 -0.0142868 0.0904385
-0.227082 0.131024 0.138271
-0.117796 0.29582 0.153329
0.00183233 0.438884 0.139004
0.120825 0.519654 0.101438
0.227378 0.515895 0.0460833
0.310351 0.433094 -0.0175866
0.36244 0.299758 -0.0881563
0.382113 0.155492 -0.15975
0.371164 0.0380424 -0.21466
0.336445 -0.0367777 -0.248315
0.285569 -0.0669993 -0.25287
0.230988 -0.0635821 -0.224681
-0.123556 -0.0445146 -0.238334
-0.166804 -0.0671922 -0.294213
-0.206722 -0.0946645 -0.317254
-0.238182 -0.128996 -0.301743
-0.25626 -0.166305 -0.24954
-0.25677 -0.198989 -0.165282
-0.235922 -0.214983 -0.0735683
-0.191743 -0.18946 0.0128057
-0.124092 -0.106287 0.0850107
-0.0353474 0.0270377 0.13418
0.0695666 0.184881 0.158754
0.181275 0.328264 0.159758
0.288139 0.419729 0.139009
0.378486 0.43926 0.0979111
0.441807 0.391085 0.0430069
0.471897 0.299884 -0.0236605
0.469152 0.198111 -0.0947639
0.436769 0.11389 -0.15201
0.382613 0.057549 -0.190054
0.315492 0.0290948 -0.201326
0.248755 0.0195143 -0.182431
0.0132831 0.0332216 -0.201169
-0.000272801 0.012186 -0.244534
-0.0158721 -0.0283307 -0.258866
-0.0312859 -0.0863449 -0.24167
-0.0430598 -0.153775 -0.197748
-0.0463286 -0.217196 -0.133017
-0.03569 -0.258955 -0.0686458
-0.00736208 -0.253861 -0.0106747
0.0406609 -0.18707 0.039626
0.107847 -0.0664297 0.0790744
0.190624 0.0830282 0.10845
0.281114 0.225351 0.127095
0.367867 0.326765 0.132546
0.439414 0.369563 0.121267
0.485296 0.356084 0.0942648
0.499824 0.306222 0.0517971
0.483481 0.245337 -7.97706e-06
0.440292 0.191993 -0.0470384
0.377965 0.151601 -0.0843763
0.305414 0.122858 -0.10417
0.235949 0.0986223 -0.103013
0.161193 0.0820793 -0.127171
0.175974 0.0640993 -0.149808
0.180679 0.0174854 -0.152389
0.174194 -0.0541218 -0.135891
0.158572 -0.140251 -0.107678
0.13947 -0.223377 -0.0744876
0.124662 -0.28155 -0.0502168
0.120862 -0.290088 -0.0327034
0.133248 -0.237059 -0.0154324
0.164331 -0.129684 0.00555737
0.213073 0.00852511 0.0341991
0.274096 0.145541 0.068899
0.336911 0.25196 0.103447
0.390344 0.312699 0.129236
0.423913 0.328079 0.140442
0.431122 0.313396 0.134116
0.411832 0.287026 0.112932
0.370326 0.259009 0.0831648
0.313222 0.231187 0.0496657
0.248676 0.200808 0.0199346
0.187944 0.163252 -0.00155922
0.274399 0.098745 -0.0417278
0.309493 0.0854109 -0.042135
0.32679 0.0406351 -0.0331778
0.322415 -0.0324124 -0.0182145
0.297364 -0.122912 -0.00663074
0.257731 -0.21171 -0.00511284
0.213468 -0.274786 -0.0197774
0.174524 -0.289584 -0.0410855
0.148845 -0.247298 -0.0562992
0.141973 -0.15408 -0.0554904
0.155632 -0.0309718 -0.0316957
0.187072 0.0947187 0.0133578
0.227274 0.198535 0.0710839
0.265655 0.268384 0.12893
0.291829 0.303091 0.175605
0.298259 0.313752 0.204313
0.284062 0.312634 0.213134
0.253648 0.30301 0.20076
0.211281 0.284165 0.17179
0.164197 0.252291 0.134164
0.120335 0.205211 0.0928983
0.329804 0.0869978 0.0321812
0.375219 0.0791149 0.0515955
0.397805 0.0423827 0.0714393
0.391933 -0.0213247 0.0857307
0.357435 -0.102617 0.0850052
0.300017 -0.183172 0.0622409
0.230686 -0.23962 0.0184475
0.161025 -0.253537 -0.0323063
0.102544 -0.218719 -0.073034
0.0628942 -0.140284 -0.089543
0.0461415 -0.0360009 -0.0728971
0.0519057 0.0721555 -0.0245805
0.0730743 0.165142 0.0457342
0.100103 0.234132 0.12338
0.122971 0.277319 0.193624
0.13431 0.302114 0.246305
0.132207 0.315979 0.27642
0.119622 0.317143 0.276567
0.0985813 0.303847 0.252818
0.0742622 0.271937 0.211007
0.0516809 0.220626 0.156787
0.324442 0.0583457 0.0768795
0.369656 0.055513 0.109061
0.391035 0.030211 0.136257
0.382377 -0.017267 0.150805
0.342606 -0.0802004 0.143113
0.276384 -0.142978 0.107607
0.194192 -0.185285 0.049086
0.107706 -0.194044 -0.0163385
0.02992 -0.164587 -0.0707052
-0.0295062 -0.101253 -0.0975798
-0.0655944 -0.0181084 -0.0877316
-0.077104 0.0683235 -0.0424089
-0.0692289 0.144339 0.0287737
-0.0501818 0.20431 0.111314
-0.0285814 0.246483 0.188961
-0.0111591 0.275616 0.250542
-0.000743129 0.295469 0.289522
0.00419667 0.301356 0.296675
0.00388466 0.29109 0.277275
0.000849643 0.260939 0.235975
-0.00247005 0.21123 0.178527
0.269192 0.0284922 0.087718
0.305875 0.0301042 0.122538
0.3221 0.0166445 0.150602
0.312158 -0.0132696 0.16422
0.274371 -0.0559855 0.154885
0.211896 -0.0989671 0.118492
0.13331 -0.125903 0.0612701
0.0486095 -0.12841 -0.00236873
-0.0299765 -0.103396 -0.0562467
-0.0931411 -0.0540884 -0.0847179
-0.135052 0.00900381 -0.0798226
-0.154216 0.0740355 -0.0425657
-0.154153 0.131622 0.0186605
-0.140928 0.178264 0.0914966
-0.120821 0.212818 0.160936
-0.0999933 0.238457 0.216511
-0.0814196 0.256873 0.252321
-0.0648383 0.262342 0.260593
-0.0510324 0.252896 0.244859
-0.0397001 0.225572 0.208777
-0.0301417 0.182191 0.158697
-0.189376 0.0788632 -0.119326
-0.196658 0.0793343 -0.169019
-0.173764 0.0570504 -0.200503
-0.116366 0.0102012 -0.200334
-0.0244361 -0.0563913 -0.15776
0.0952865 -0.126705 -0.0727321
0.229376 -0.181496 0.036864
0.361091 -0.210315 0.146212
0.471363 -0.210996 0.231242
0.543423 -0.186601 0.274288
0.564941 -0.148708 0.272375
0.531468 -0.112081 0.233711
0.449671 -0.0900618 0.171744
0.334325 -0.090301 0.0988449
0.204862 -0.110038 0.0250301
0.0826001 -0.141376 -0.046096
-0.019351 -0.173251 -0.112958
-0.0927163 -0.189471 -0.163413
-0.134047 -0.179268 -0.190053
-0.146296 -0.146572 -0.188685
-0.134964 -0.0997833 -0.161055
-0.188936 0.104682 -0.125082
-0.190673 0.0945642 -0.185637
-0.157843 0.0522273 -0.227848
-0.0858021 -0.0207322 -0.233283
0.0238271 -0.115221 -0.186848
0.161981 -0.211775 -0.0866031
0.312773 -0.2856 0.0470949
0.456617 -0.319775 0.182253
0.572312 -0.309084 0.287487
0.641872 -0.257967 0.340603
0.652729 -0.182457 0.337645
0.599845 -0.104396 0.290056
0.491992 -0.0448997 0.21615
0.346484 -0.0178185 0.132535
0.186528 -0.0241638 0.0505119
0.0366706 -0.0565049 -0.0281503
-0.0869299 -0.0998788 -0.103491
-0.174103 -0.133279 -0.161632
-0.219959 -0.142881 -0.195653
-0.227713 -0.127731 -0.200309
-0.20448 -0.0943748 -0.17491
-0.131137 0.122167 -0.0987873
-0.119962 0.0997348 -0.164199
-0.0765707 0.036768 -0.21756
0.00239433 -0.0614258 -0.23554
0.113351 -0.182627 -0.198385
0.246451 -0.303602 -0.100799
0.385531 -0.393935 0.0379297
0.511856 -0.430485 0.181975
0.605841 -0.404153 0.294587
0.652423 -0.320152 0.350731
0.640274 -0.199071 0.34607
0.565882 -0.070794 0.295165
0.439231 0.034322 0.220606
0.278712 0.0947116 0.142079
0.107492 0.104562 0.0700084
-0.0494068 0.0703225 0.00291673
-0.176006 0.0112808 -0.0636024
-0.261849 -0.045922 -0.11798
-0.30163 -0.08408 -0.154623
-0.299352 -0.0960146 -0.167566
-0.263391 -0.0844947 -0.15322
-0.0189967 0.117252 -0.0398012
0.0105283 0.0830513 -0.105053
0.0636127 0.00467978 -0.170936
0.140207 -0.110003 -0.209988
0.235041 -0.247256 -0.196449
0.339108 -0.382063 -0.121936
0.438774 -0.481289 -0.000338016
0.519423 -0.514977 0.131938
0.567507 -0.470177 0.235865
0.572295 -0.352005 0.285072
0.527106 -0.184778 0.276021
0.43164 -0.00610362 0.226418
0.296516 0.144349 0.162516
0.138909 0.237038 0.105425
-0.0206426 0.260713 0.0632568
-0.16037 0.221193 0.0287321
-0.267397 0.142459 -0.00895266
-0.333971 0.0567724 -0.0460707
-0.356688 -0.0151846 -0.0773445
-0.340226 -0.0590161 -0.0977749
-0.293077 -0.0730904 -0.09974
0.129733 0.0822382 0.0398343
0.178448 0.040265 -0.0217862
0.237204 -0.0434184 -0.101452
0.301372 -0.16012 -0.167636
0.364632 -0.297177 -0.19068
0.420523 -0.43034 -0.157553
0.460624 -0.526847 -0.0737902
0.477455 -0.55183 0.0275586
0.464289 -0.487574 0.107666
0.417456 -0.338517 0.14107
0.336891 -0.131344 0.125926
0.226529 0.0898927 0.0825846
0.0967615 0.27728 0.0398165
-0.0384989 0.394129 0.0185376
-0.1646 0.424032 0.0226753
-0.265776 0.37348 0.0383466
-0.335026 0.270855 0.0463336
-0.369102 0.154053 0.0396681
-0.368068 0.0479656 0.0198053
-0.336888 -0.0269278 -0.00563738
-0.283195 -0.06457 -0.0259192
0.280668 0.0167625 0.124755
0.344587 -0.0276532 0.0707693
0.403135 -0.103424 -0.0198651
0.446938 -0.204684 -0.113956
0.469223 -0.322973 -0.179169
0.467377 -0.437314 -0.197698
0.439299 -0.518452 -0.165002
0.385702 -0.528709 -0.108585
0.308321 -0.445845 -0.0643686
0.21134 -0.27296 -0.0542492