# vtk DataFile Version 2.0
Func
ASCII
DATASET RECTILINEAR_GRID
DIMENSIONS 21 21 21
X_COORDINATES 21 double
-4.7619
-4.28571
-3.80952
-3.33333
-2.85714
-2.38095
-1.90476
-1.42857
-0.952381
-0.47619
0
0.47619
0.952381
1.42857
1.90476
2.38095
2.85714
3.33333
3.80952
4.28571
4.7619
Y_COORDINATES 21 double
-4.7619
-4.28571
-3.80952
-3.33333
-2.85714
-2.38095
-1.90476
-1.42857
-0.952381
-0.47619
0
0.47619
0.952381
1.42857
1.90476
2.38095
2.85714
3.33333
3.80952
4.28571
4.7619
Z_COORDINATES 21 double
-4.7619
-4.28571
-3.80952
-3.33333
-2.85714
-2.38095
-1.90476
-1.42857
-0.952381
-0.47619
0
0.47619
0.952381
1.42857
1.90476
2.38095
2.85714
3.33333
3.80952
4.28571
4.7619
POINT_DATA 9261
SCALARS data double 3
LOOKUP_TABLE default
-0.0533753 0.0571286 -0.0548368
-0.0619069 0.0432759 -0.0581146
-0.0609486 0.0143732 -0.0548958
-0.047677 -0.0225201 -0.048592
-0.0190357 -0.0532147 -0.0463014
0.0250522 -0.0666406 -0.0507778
0.082416 -0.051744 -0.0644794
0.148703 -0.0112074 -0.0825476
0.216616 0.0439088 -0.0947023
0.277262 0.0998942 -0.0883274
0.323166 0.14322 -0.0535593
0.349393 0.164369 0.0114898
0.353956 0.159007 0.098901
0.338277 0.127976 0.192468
0.30805 0.0777768 0.271359
0.269505 0.0161357 0.318869
0.228337 -0.0470456 0.326158
0.188361 -0.0972585 0.294747
0.153133 -0.127944 0.234929
0.123548 -0.136678 0.165482
0.0988712 -0.122266 0.101205
-0.046458 0.0943058 -0.0780801
-0.0540084 0.0786402 -0.0830291
-0.0529566 0.0398618 -0.0773356
-0.0397548 -0.0121308 -0.0668568
-0.0107695 -0.0586746 -0.0613374
0.0354172 -0.0839524 -0.0652916
0.0976018 -0.0729007 -0.0837958
0.172284 -0.0279646 -0.109956
0.252244 0.0367466 -0.129954
0.327656 0.103618 -0.126551
0.389059 0.154947 -0.0861909
0.428808 0.178781 -0.00600422
0.44229 0.170371 0.103642
0.429507 0.132184 0.22136
0.395905 0.0733855 0.320573
0.348813 0.00425124 0.379929
0.295522 -0.0638544 0.388356
0.241348 -0.115205 0.348925
0.191637 -0.143593 0.275466
0.149345 -0.14791 0.191407
0.115193 -0.127836 0.114615
-0.0193758 0.136089 -0.0964758
-0.0230136 0.120594 -0.104881
-0.0214886 0.073041 -0.0991019
-0.0110641 0.00610749 -0.0868117
0.0122106 -0.0574773 -0.0794608
0.0514579 -0.096776 -0.083716
0.107404 -0.0923193 -0.107239
0.17827 -0.0460686 -0.141729
0.258558 0.0252889 -0.169918
0.338924 0.100678 -0.171417
0.408651 0.158411 -0.129786
0.457931 0.1842 -0.0413471
0.479625 0.173006 0.0816713
0.471462 0.129151 0.214012
0.438182 0.0641936 0.325326
0.387313 -0.00884393 0.391165
0.326885 -0.0776181 0.399323
0.263649 -0.125891 0.355076
0.204724 -0.14875 0.275343
0.154572 -0.147043 0.186166
0.115519 -0.122147 0.107023
0.0289196 0.179964 -0.104355
0.0315934 0.16685 -0.116754
0.0337814 0.112681 -0.113539
0.0391059 0.032803 -0.102679
0.0515512 -0.0470809 -0.0961406
0.076084 -0.101225 -0.102694
0.115685 -0.105581 -0.131916
0.171119 -0.0610526 -0.174491
0.239568 0.0137224 -0.210549
0.312998 0.0949665 -0.218451
0.380734 0.157561 -0.180115
0.431728 0.185137 -0.091422
0.45692 0.172387 0.0342976
0.452196 0.12534 0.169734
0.420739 0.0576124 0.282939
0.370331 -0.0157631 0.348458
0.309135 -0.0820936 0.354229
0.244364 -0.124996 0.308486
0.184032 -0.141625 0.229912
0.133561 -0.134599 0.145683
0.0961418 -0.107236 0.0748549
0.0920598 0.220835 -0.094778
0.102266 0.212626 -0.110916
0.105492 0.155489 -0.11343
0.104852 0.0666127 -0.109131
0.104143 -0.0268611 -0.108556
0.109667 -0.0948294 -0.121636
0.126608 -0.109211 -0.158053
0.15812 -0.0692006 -0.207212
0.204129 0.00568183 -0.248713
0.258877 0.0900051 -0.261788
0.313032 0.156142 -0.22874
0.355686 0.185974 -0.14591
0.377068 0.173723 -0.0271148
0.372116 0.126473 0.100324
0.342649 0.0591071 0.205461
0.296243 -0.0124188 0.263926
0.240367 -0.0753589 0.265429
0.181981 -0.113218 0.221476
0.128992 -0.125233 0.151399
0.0864963 -0.115372 0.080648
0.057662 -0.0883511 0.0267777
0.159429 0.252822 -0.0687691
0.17674 0.251513 -0.0866928
0.180885 0.195703 -0.0960727
0.174319 0.10288 -0.102153
0.160671 0.000587277 -0.112552
0.147198 -0.0781208 -0.135944
0.140623 -0.101588 -0.179819
0.145841 -0.0670657 -0.232638
0.165104 0.00605039 -0.275137
0.194789 0.0916661 -0.289413
0.227432 0.160548 -0.260622
0.253217 0.193089 -0.186952
0.262876 0.182749 -0.082394
0.251555 0.136891 0.0275356
0.220555 0.0707815 0.115686
0.177477 0.00073528 0.161116
0.129002 -0.0605265 0.156503
0.0814168 -0.0959813 0.116492
0.0415738 -0.106598 0.0599908
0.0133778 -0.0966632 0.00836058
-0.00111684 -0.0721962 -0.0239342
0.219301 0.272021 -0.0276017
0.242458 0.278684 -0.0443932
0.247827 0.228193 -0.0608825
0.237399 0.136995 -0.0802656
0.214704 0.0314226 -0.106156
0.187317 -0.0536347 -0.143864
0.162564 -0.0838065 -0.196144
0.145955 -0.0545816 -0.250191
0.141145 0.0156001 -0.288814
0.145792 0.101054 -0.298151
0.154264 0.171877 -0.268232
0.158354 0.207257 -0.200568
0.150277 0.199526 -0.109715
0.126479 0.155345 -0.0187939
0.0888967 0.0893682 0.0498611
0.0449983 0.0180047 0.0801503
0.00143031 -0.0457365 0.0683213
-0.0359489 -0.0837384 0.0311496
-0.0617041 -0.0971478 -0.0128401
-0.0735386 -0.0900334 -0.0468524
-0.0714099 -0.0685456 -0.0604842
0.262466 0.275012 0.023792
0.28909 0.289714 0.0100947
0.29564 0.247739 -0.0139266
0.283871 0.163535 -0.0491984
0.257471 0.0609279 -0.0942624
0.223689 -0.0249081 -0.148994
0.189283 -0.0583896 -0.209107
0.159375 -0.0337342 -0.260284
0.13747 0.0326686 -0.288312
0.121388 0.116492 -0.284343
0.106912 0.188165 -0.245174
0.0877275 0.226021 -0.177112
0.0583624 0.220943 -0.0958892
0.0175693 0.17786 -0.0221084
-0.0313079 0.110104 0.0272304
-0.0799819 0.0333067 0.0417535
-0.122117 -0.0381293 0.0217064
-0.151763 -0.0845083 -0.0151537
-0.164894 -0.105133 -0.0506918
-0.160999 -0.103 -0.0723922
-0.142611 -0.0835836 -0.0738325
0.284713 0.261212 0.080101
0.311609 0.282385 0.0704271
0.31836 0.250465 0.0383148
0.306801 0.177096 -0.0145368
0.280944 0.0829336 -0.0808111
0.24738 0.00150654 -0.15328
0.21155 -0.0321969 -0.219
0.17719 -0.0114284 -0.262336
0.146478 0.050199 -0.272986
0.116505 0.130567 -0.247973
0.0840218 0.201518 -0.192268
0.0446326 0.241021 -0.117962
-0.0044365 0.238325 -0.0423147
-0.0617279 0.195752 0.0166896
-0.122331 0.124723 0.0477372
-0.177075 0.0395532 0.0465647
-0.219395 -0.0436877 0.017518
-0.243457 -0.102874 -0.0216531
-0.24702 -0.134117 -0.0531907
-0.231157 -0.137831 -0.068505
-0.200078 -0.11845 -0.0648644
0.284761 0.232574 0.135033
0.308055 0.257383 0.129803
0.312837 0.235069 0.0901634
0.301298 0.174357 0.0204496
0.278041 0.0922497 -0.0661365
0.248945 0.0189291 -0.154638
0.217785 -0.0128533 -0.223226
0.186521 0.0041716 -0.255397
0.155351 0.0596074 -0.245189
0.120128 0.134179 -0.195708
0.0781778 0.20206 -0.120394
0.0268114 0.241449 -0.0372058
-0.0342989 0.240089 0.0351515
-0.101398 0.197327 0.0813743
-0.16852 0.12248 0.0957509
-0.226116 0.0283148 0.07993
-0.267649 -0.0673393 0.0420793
-0.287695 -0.13978 -0.000987436
-0.285665 -0.181427 -0.0320253
-0.263662 -0.189964 -0.0456414
-0.22666 -0.167619 -0.0423868
0.266878 0.193257 0.182367
0.283581 0.21853 0.181182
0.283661 0.204354 0.135327
0.270147 0.156478 0.0516468
0.248392 0.0881181 -0.051458
0.223823 0.0246789 -0.152024
0.19879 -0.00470768 -0.220522
0.173799 0.00743833 -0.240455
0.147272 0.0542172 -0.210367
0.114026 0.119766 -0.139109
0.0719225 0.181433 -0.0476403
0.0197052 0.218371 0.0412936
-0.0412657 0.21722 0.108375
-0.106055 0.174413 0.141385
-0.168764 0.0971557 0.139879
-0.220714 -0.00343244 0.110721
-0.256264 -0.108266 0.0653061
-0.271183 -0.190536 0.0191678
-0.266341 -0.239266 -0.011864
-0.244251 -0.249597 -0.0249187
-0.20943 -0.221713 -0.0231834
0.237036 0.149358 0.216989
0.245141 0.172678 0.21905
0.23778 0.164787 0.169296
0.219123 0.128573 0.0767174
0.195322 0.0735908 -0.0365341
0.171784 0.019485 -0.143434
0.150156 -0.00907215 -0.209268
0.130395 -0.00448328 -0.218717
0.110074 0.0300187 -0.174663
0.0837731 0.0824921 -0.0906817
0.0501433 0.134199 0.00694702
0.00905654 0.166047 0.0929
-0.0375493 0.164208 0.1488
-0.0851257 0.122657 0.166249
-0.129299 0.0465691 0.149491
-0.163924 -0.0546666 0.109416
-0.185523 -0.161732 0.0596025
-0.192125 -0.246712 0.0142533
-0.185793 -0.296472 -0.0137673
-0.168897 -0.304258 -0.0237314
-0.144275 -0.268733 -0.0206341
0.20202 0.106877 0.234835
0.200963 0.126918 0.239243
0.184362 0.123702 0.188843
0.157511 0.0973005 0.0940872
0.127229 0.0538621 -0.0211999
0.0993642 0.00683696 -0.127771
0.0758126 -0.0238358 -0.189227
0.0571835 -0.0303582 -0.192633
0.0415688 -0.0122436 -0.144566
0.0244473 0.0229415 -0.0615726
0.00564288 0.0609631 0.0279676
-0.0141525 0.0852859 0.0991721
-0.0336434 0.0824014 0.136608
-0.0503253 0.0445631 0.136489
-0.0628014 -0.0249977 0.106744
-0.069069 -0.118744 0.060568
-0.0690194 -0.218491 0.0121786
-0.0638842 -0.296718 -0.0258014
-0.0565323 -0.339983 -0.0453114
-0.0486796 -0.340653 -0.0475856
-0.04055 -0.296807 -0.0384693
0.167454 0.0706486 0.232615
0.15841 0.087522 0.238262
0.132812 0.0878213 0.190674
0.0965404 0.0691918 0.100691
0.0566813 0.0345735 -0.00847595
0.0197985 -0.00861093 -0.10839
-0.0111041 -0.0448253 -0.164858
-0.0336629 -0.0658802 -0.168223
-0.0479246 -0.0676148 -0.127581
-0.0563507 -0.0529325 -0.0601653
-0.0576038 -0.0312694 0.00718898
-0.0505011 -0.0160178 0.053253
-0.0354052 -0.0196493 0.0674612
-0.0131482 -0.0507743 0.051021
0.0136106 -0.108011 0.0140467
0.0416773 -0.185758 -0.0300267
0.0671854 -0.268322 -0.0683924
0.0854161 -0.330255 -0.0910682
0.0932156 -0.35974 -0.0959869
0.090038 -0.349394 -0.0861002
0.0788958 -0.298282 -0.0673955
0.136789 0.0445209 0.209719
0.122684 0.0598919 0.214949
0.0907987 0.0634567 0.172858
0.046898 0.0505993 0.0936673
-0.00224153 0.0216148 -0.00224945
-0.0495671 -0.0213638 -0.0900189
-0.0906896 -0.0663721 -0.140998
-0.120848 -0.104478 -0.149308
-0.137402 -0.128033 -0.125195
-0.13997 -0.135324 -0.0842515
-0.125549 -0.131198 -0.0484813
-0.0926996 -0.125742 -0.0327393
-0.0438431 -0.129924 -0.0414463
0.0164027 -0.152337 -0.0688291
0.0810027 -0.193118 -0.104418
0.14151 -0.248466 -0.136881
0.190428 -0.306168 -0.156934
0.219988 -0.344273 -0.158197
0.227227 -0.354003 -0.144895
0.213253 -0.329928 -0.121641
0.184285 -0.273187 -0.0932542
0.111246 0.0302272 0.167161
0.0965104 0.0462559 0.169679
0.0636169 0.0537216 0.134054
0.0171597 0.045185 0.0691652
-0.037355 0.0187562 -0.00875559
-0.0926418 -0.0269952 -0.080479
-0.143109 -0.0824995 -0.125506
-0.181971 -0.137996 -0.141674
-0.203612 -0.182772 -0.138841
-0.204537 -0.210986 -0.128952
-0.180252 -0.2236 -0.126763
-0.129235 -0.227633 -0.139086
-0.0557162 -0.232344 -0.163906
0.0323711 -0.245614 -0.192145
0.124144 -0.268592 -0.21501
0.207203 -0.29913 -0.225223
0.271316 -0.328596 -0.218956
0.307015 -0.339521 -0.195406
0.312009 -0.326926 -0.164198
0.289338 -0.288537 -0.130464
0.2479 -0.228627 -0.0977408
0.0910903 0.0266696 0.110787
0.0799657 0.0452839 0.108407
0.0517885 0.0565527 0.0788926
0.00899131 0.0511002 0.0292407
-0.0447709 0.0248266 -0.0290199
-0.10277 -0.0252903 -0.0829281
-0.158715 -0.0910993 -0.121448
-0.20449 -0.161817 -0.145667
-0.232184 -0.224551 -0.163673
-0.23545 -0.270162 -0.182466
-0.208713 -0.296745 -0.208489
-0.1505 -0.308808 -0.240277
-0.0661912 -0.313902 -0.270176
0.0340436 -0.318696 -0.287599
0.136763 -0.324892 -0.287083
0.227359 -0.331448 -0.266683
0.294447 -0.333093 -0.229397
0.328873 -0.317466 -0.182055
0.329626 -0.283616 -0.136906
0.301657 -0.232951 -0.0991799
0.255279 -0.172759 -0.0703348
0.0724647 0.0308727 0.052148
0.0677161 0.0528238 0.044577
0.0489162 0.0672723 0.0205251
0.015781 0.0637736 -0.0156191
-0.0305328 0.0367686 -0.0561584
-0.0841718 -0.0173003 -0.0934139
-0.139238 -0.0907516 -0.124857
-0.187224 -0.172122 -0.153976
-0.219173 -0.24728 -0.186435
-0.226739 -0.304956 -0.224226
-0.203925 -0.341466 -0.266645
-0.149449 -0.359437 -0.305848
-0.0690144 -0.364839 -0.330656
0.0264825 -0.362853 -0.330997
0.122732 -0.355294 -0.304671
0.205062 -0.341799 -0.254949
0.262951 -0.320006 -0.191394
0.28961 -0.282625 -0.127646
0.284954 -0.232167 -0.0759371
0.255859 -0.17368 -0.0402477
0.212501 -0.116145 -0.0209284
0.0559057 0.0387881 0.00157862
0.0583213 0.0637729 -0.0114531
0.0509572 0.0804693 -0.031785
0.0309974 0.0781153 -0.0570164
-0.00237091 0.0504547 -0.0831417
-0.0454333 -0.00540993 -0.106191
-0.0934395 -0.082011 -0.129915
-0.138791 -0.167673 -0.158934
-0.172669 -0.24808 -0.196894
-0.185951 -0.311181 -0.241797
-0.17269 -0.352677 -0.287855
-0.131565 -0.374064 -0.323393
-0.0675174 -0.380001 -0.335981
0.00947343 -0.374165 -0.317418
0.0859324 -0.357958 -0.268616
0.14935 -0.331195 -0.197663
0.191573 -0.293619 -0.118442
0.208278 -0.242258 -0.0493867
0.200322 -0.182043 0.000719468
0.174969 -0.120639 0.0280951
0.141224 -0.0676099 0.0339057
0.040204 0.0466999 -0.0327712
0.0486365 0.0732748 -0.0497226
0.0517006 0.0907789 -0.0675121
0.0454271 0.0889454 -0.0845991
0.0270152 0.0617545 -0.0995266
-0.00205893 0.0072617 -0.111445
-0.0389364 -0.0672013 -0.127383
-0.0775629 -0.150511 -0.152091
-0.110151 -0.229135 -0.187559
-0.128021 -0.291467 -0.229641
-0.125759 -0.33345 -0.269839
-0.101942 -0.356002 -0.295323
-0.0601272 -0.362706 -0.294382
-0.00835336 -0.355883 -0.261126
0.0423631 -0.336279 -0.199316
0.0828619 -0.303479 -0.11984
0.10752 -0.258541 -0.0380621
0.114618 -0.201725 0.0266532
0.105593 -0.139337 0.0676967
0.0869656 -0.0799249 0.0831856
0.0655561 -0.032664 0.075963
0.0262884 0.0519955 -0.0473805
0.0376562 0.0780334 -0.0651641
0.0473739 0.0946396 -0.0803437
0.0513433 0.0929668 -0.0917097
0.045931 0.0674464 -0.0990088
0.0305559 0.01716 -0.103484
0.00652955 -0.0507636 -0.112441
-0.0224 -0.12624 -0.130114
-0.0499598 -0.197344 -0.157287
-0.0692405 -0.253915 -0.189556
-0.0757288 -0.292471 -0.218294
-0.0680044 -0.313712 -0.23204
-0.0480669 -0.320467 -0.221364
-0.0211633 -0.314387 -0.182597
0.00519865 -0.295545 -0.121164
0.0248847 -0.263186 -0.0478965
0.0349154 -0.218759 0.0229899
0.0352472 -0.164457 0.0749311
0.0275975 -0.106874 0.103101
0.016778 -0.0542279 0.107257
0.00727409 -0.0136945 0.0918932
-0.0840353 0.0551754 -0.0690619
-0.0985809 0.029547 -0.0751432
-0.101821 -0.0156702 -0.0724284
-0.0886431 -0.0691066 -0.0660957
-0.0553513 -0.111877 -0.064767
-0.00305222 -0.130542 -0.0734119
0.0652392 -0.110667 -0.094884
0.143564 -0.056506 -0.12235
0.223663 0.0171884 -0.142037
0.29475 0.0921173 -0.137735
0.348554 0.151511 -0.0963492
0.379735 0.184433 -0.0154628
0.386445 0.186878 0.0945438
0.370897 0.161225 0.212613
0.339636 0.11477 0.312255
0.299142 0.0559017 0.372361
0.255622 -0.00558001 0.38206
0.212846 -0.056148 0.344699
0.174589 -0.0906125 0.273788
0.141746 -0.106103 0.192079
0.114125 -0.0995053 0.116294
-0.0727955 0.0987303 -0.0989319
-0.0865569 0.0694931 -0.107692
-0.0908468 0.0107996 -0.102437
-0.0794155 -0.0619193 -0.09118
-0.047865 -0.124119 -0.0856978
0.00415893 -0.157399 -0.0935673
0.0749692 -0.142453 -0.120862
0.159733 -0.0833161 -0.158305
0.250712 0.00177797 -0.187567
0.336253 0.0898141 -0.186839
0.40617 0.159522 -0.138491
0.452144 0.197536 -0.0389459
0.469356 0.199702 0.098276
0.458469 0.17047 0.245543
0.425624 0.119555 0.369367
0.37815 0.0575293 0.442861
0.323667 -0.00486651 0.45266
0.267331 -0.0539482 0.404657
0.214655 -0.0855164 0.317016
0.168822 -0.0980479 0.218042
0.131459 -0.0891371 0.128585
-0.0321254 0.14863 -0.123482
-0.0404647 0.118591 -0.136469
-0.0446425 0.0485255 -0.13066
-0.03821 -0.0423291 -0.116218
-0.016312 -0.124564 -0.107184
0.023537 -0.17461 -0.114
0.0823186 -0.167993 -0.146257
0.157749 -0.108353 -0.193129
0.244647 -0.0166969 -0.232137
0.332422 0.0801638 -0.237637
0.409615 0.157079 -0.188466
0.465581 0.198635 -0.0799467
0.492536 0.20076 0.0722558
0.488281 0.170028 0.235841
0.457849 0.118287 0.372889
0.408465 0.0582907 0.452739
0.348316 0.00073762 0.460818
0.283982 -0.0415218 0.405961
0.222811 -0.0665033 0.310307
0.169582 -0.0746266 0.205415
0.127858 -0.0649716 0.114285
0.037166 0.200537 -0.135916
0.0380565 0.173179 -0.153051
0.0351721 0.0957288 -0.149026
0.0344182 -0.00939322 -0.13446
0.0407498 -0.109552 -0.124272
0.0590864 -0.176659 -0.131659
0.0936118 -0.181231 -0.168919
0.145632 -0.125626 -0.224441
0.213814 -0.0327114 -0.272733
0.289519 0.0681811 -0.286566
0.361594 0.149045 -0.242715
0.41818 0.192936 -0.135694
0.44918 0.195942 0.0178561
0.449918 0.166469 0.183458
0.423094 0.118031 0.321372
0.376218 0.0643491 0.399665
0.317143 0.0154098 0.403986
0.252862 -0.0172194 0.346538
0.191565 -0.0346352 0.251779
0.139292 -0.0389416 0.152499
0.100589 -0.0309797 0.0717476
0.124931 0.24782 -0.127884
0.137144 0.227124 -0.147945
0.136918 0.148065 -0.148472
0.128827 0.0348983 -0.138871
0.117559 -0.0786862 -0.13294
0.109998 -0.160801 -0.145284
0.113487 -0.177848 -0.188865
0.132875 -0.130184 -0.251137
0.170447 -0.0409848 -0.306121
0.220789 0.0593251 -0.327405
0.274529 0.14118 -0.292005
0.320164 0.186624 -0.194517
0.346632 0.191685 -0.051558
0.347712 0.165812 0.102906
0.324077 0.123222 0.230413
0.282579 0.0774766 0.300018
0.230242 0.037507 0.29937
0.173799 0.0137833 0.243962
0.121352 0.00238954 0.158446
0.0788602 -0.000191363 0.0740797
0.0508723 0.00401298 0.0125873
0.21625 0.283339 -0.099816
0.239474 0.272333 -0.119919
0.242292 0.197881 -0.125882
0.227606 0.0838621 -0.125521
0.199775 -0.0365114 -0.129687
0.16722 -0.129255 -0.151469
0.139572 -0.157395 -0.201555
0.124382 -0.118989 -0.266949
0.127016 -0.0362438 -0.323294
0.145146 0.0606345 -0.347284
0.171712 0.141641 -0.31914
0.196638 0.188102 -0.235125
0.209292 0.195595 -0.111346
0.203213 0.173666 0.0210288
0.178018 0.13627 0.12816
0.140406 0.096271 0.18278
0.0963241 0.0617452 0.175756
0.0519639 0.0430215 0.125279
0.0144047 0.0338953 0.0547395
-0.0114613 0.0306311 -0.00885463
-0.0223565 0.0300093 -0.0469878
0.293888 0.30283 -0.0526145
0.326469 0.303272 -0.0689024
0.332974 0.239006 -0.0805507
0.314919 0.131513 -0.0930793
0.276233 0.0115745 -0.113166
0.226085 -0.0860148 -0.149621
0.175156 -0.121985 -0.2076
0.132177 -0.092183 -0.273232
0.104393 -0.017082 -0.324911
0.0914956 0.074672 -0.343822
0.0886114 0.153586 -0.315879
0.0876119 0.200442 -0.240861
0.0794772 0.209802 -0.134902
0.0587914 0.190173 -0.0257395
0.0256578 0.154125 0.0584981
-0.0136946 0.114065 0.0959733
-0.0531375 0.077806 0.0814296
-0.0867868 0.0570013 0.0343488
-0.108784 0.0448865 -0.0230159
-0.115969 0.0383215 -0.0685529
-0.107362 0.0340672 -0.0877513
0.346252 0.302751 0.00803372
0.384942 0.314884 -0.0021307
0.395048 0.264787 -0.0202779
0.377103 0.170415 -0.0493814
0.334876 0.0583864 -0.0904993
0.277388 -0.0371038 -0.145575
0.214797 -0.0761443 -0.21124
0.15567 -0.0531425 -0.272316
0.107153 0.014392 -0.311021
0.0695282 0.100303 -0.31423
0.0395347 0.17639 -0.275889
0.0112486 0.222973 -0.201202
-0.0217499 0.233024 -0.107224
-0.0625767 0.212822 -0.0182909
-0.109606 0.172928 0.0437164
-0.15585 0.124796 0.0634669
-0.195326 0.0778997 0.0401809
-0.221566 0.0462707 -0.00669984
-0.230038 0.0255922 -0.0561878
-0.219321 0.0137391 -0.0904529
-0.191877 0.008629 -0.098978
0.369536 0.283329 0.0755272
0.41007 0.305441 0.0721633
0.42241 0.271181 0.0461393
0.406686 0.19417 -0.00239103
0.366614 0.0963314 -0.0677318
0.310566 0.00930996 -0.142953
0.24715 -0.0284626 -0.214052
0.183407 -0.0102151 -0.264652
0.124883 0.0501502 -0.281891
0.0712951 0.129668 -0.259453
0.0204262 0.202185 -0.201102
-0.0314566 0.247711 -0.118808
-0.0876541 0.257161 -0.0311663
-0.148376 0.233611 0.0408234
-0.210133 0.1852 0.0819408
-0.264944 0.122349 0.0839542
-0.30623 0.0570214 0.0507021
-0.327387 0.00737236 0.000730941
-0.32554 -0.0268024 -0.0460843
-0.301082 -0.0445646 -0.0760407
-0.258894 -0.0466637 -0.0823411
0.364029 0.247987 0.142087
0.401276 0.27663 0.145267
0.412795 0.257085 0.111086
0.398857 0.198799 0.0429844
0.363444 0.118682 -0.0462635
0.314149 0.0442832 -0.140142
0.257559 0.0108268 -0.213709
0.198615 0.0257888 -0.249791
0.140454 0.0791544 -0.240947
0.0815325 0.151537 -0.188086
0.0201949 0.219337 -0.105266
-0.0453958 0.262476 -0.0114963
-0.115731 0.269697 0.0729844
-0.188471 0.240483 0.13042
-0.258815 0.18062 0.152238
-0.31823 0.0997017 0.13726
-0.359882 0.0127784 0.0937177
-0.377444 -0.0571809 0.0385373
-0.369658 -0.105536 -0.00930795
-0.338176 -0.128113 -0.0396704
-0.289071 -0.122999 -0.0492769
0.33665 0.20207 0.200058
0.366571 0.233308 0.208536
0.373503 0.225999 0.166974
0.358611 0.185664 0.082054
0.326424 0.124351 -0.0269885
0.284018 0.0642589 -0.135071
0.236225 0.0360202 -0.207834
0.186193 0.0475092 -0.228249
0.134846 0.0926902 -0.194462
0.0794851 0.156062 -0.114342
0.0189446 0.21704 -0.0111387
-0.0470822 0.255894 0.090316
-0.117219 0.259464 0.169007
-0.187742 0.223771 0.210821
-0.253828 0.152569 0.213561
-0.307686 0.0548757 0.182455
-0.343324 -0.0514159 0.129513
-0.355686 -0.138797 0.0701073
-0.345089 -0.198069 0.021644
-0.313778 -0.22207 -0.00888492
-0.267392 -0.206651 -0.0213198
0.295795 0.153062 0.242981
0.315581 0.183862 0.255157
0.314171 0.185822 0.208456
0.29415 0.161011 0.112404
0.260785 0.117079 -0.0089286
0.221139 0.0701189 -0.124422
0.179144 0.0454642 -0.193506
0.137151 0.0512925 -0.200633
0.0949193 0.0854954 -0.149299
0.0493716 0.136677 -0.0532225
8.2909e-05 0.187697 0.0578369
-0.0521195 0.219799 0.155861
-0.10537 0.218569 0.220866
-0.15623 0.1772 0.243284
-0.201555 0.0978955 0.226766
-0.23605 -0.0107661 0.181674
-0.256164 -0.129014 0.122637
-0.259435 -0.225942 0.0638693
-0.247655 -0.289216 0.0197314
-0.223028 -0.309577 -0.00592217
-0.189085 -0.281456 -0.0154634
0.250009 0.107747 0.265544
0.258608 0.136352 0.279877
0.24628 0.145055 0.231695
0.217158 0.132737 0.132508
0.177267 0.103214 0.00873079
0.134189 0.0662457 -0.106068
0.0920699 0.0417851 -0.169527
0.0538108 0.0383784 -0.168986
0.0195244 0.0576698 -0.11249
-0.0131005 0.0926096 -0.017574
-0.0433675 0.129932 0.0834378
-0.0697104 0.152665 0.162993
-0.0912544 0.146093 0.204539
-0.106623 0.101583 0.204088
-0.116002 0.0202126 0.170073
-0.118291 -0.0899342 0.116042
-0.113887 -0.208755 0.0574835
-0.104074 -0.303888 0.00753542
-0.0918633 -0.362043 -0.0244244
-0.0788217 -0.373228 -0.0378256
-0.0650482 -0.3317 -0.0367815
0.205703 0.0713735 0.263313
0.204087 0.0979062 0.278226
0.180737 0.111513 0.232726
0.140817 0.108576 0.138868
0.0908272 0.0894601 0.0226133
0.03918 0.0579181 -0.0837273
-0.00880976 0.0291384 -0.140871
-0.0484916 0.0122336 -0.140068
-0.0779663 0.0124384 -0.0924626
-0.0976368 0.02725 -0.0166976
-0.105392 0.0475796 0.0567604
-0.0993372 0.0589571 0.104697
-0.0807651 0.0473537 0.116302
-0.0517177 0.00343085 0.0936787
-0.0168538 -0.072526 0.0483243
0.0196552 -0.173095 -0.00541984
0.05275 -0.279547 -0.0535397
0.0770523 -0.360461 -0.0850556
0.08882 -0.403902 -0.0968079
0.0877102 -0.400661 -0.0913319
0.0778564 -0.347026 -0.0739915
0.166589 0.0476789 0.235821
0.158056 0.0741042 0.249381
0.126726 0.0921052 0.209958
0.0781733 0.0956821 0.128952
0.0187732 0.0825716 0.0289684
-0.0425461 0.0513994 -0.0622871
-0.0991544 0.0136915 -0.112595
-0.143965 -0.0205152 -0.117683
-0.172454 -0.0426296 -0.0901136
-0.182364 -0.0506435 -0.0468386
-0.170035 -0.0495571 -0.0124948
-0.133475 -0.0509173 -0.00268802
-0.0764746 -0.0672822 -0.0209547
-0.00490202 -0.107534 -0.0596049
0.0718951 -0.1717 -0.106282
0.144473 -0.253101 -0.148639
0.203627 -0.335865 -0.176664
0.240325 -0.39174 -0.18242
0.250555 -0.411865 -0.169494
0.235767 -0.390256 -0.143608
0.204225 -0.326676 -0.109705
0.133573 0.0380216 0.184805
0.123068 0.066689 0.194372
0.0898405 0.0894464 0.162487
0.038537 0.0972744 0.0987669
-0.0255239 0.0857468 0.0207924
-0.0933039 0.0503623 -0.0507994
-0.157025 0.000452844 -0.0939443
-0.207839 -0.0529001 -0.108613
-0.23832 -0.0981574 -0.106916
-0.243354 -0.129203 -0.10165
-0.217971 -0.147462 -0.108725
-0.160265 -0.161531 -0.134143
-0.0760602 -0.182012 -0.173821
0.025513 -0.216474 -0.216065
0.131205 -0.264763 -0.250195
0.227886 -0.321223 -0.26834
0.3032 -0.37326 -0.266556
0.346174 -0.397621 -0.242541
0.353254 -0.389922 -0.206051
0.327785 -0.348713 -0.164168
0.281347 -0.278454 -0.121022
0.106898 0.0401683 0.117187
0.0993201 0.0728317 0.120174
0.0709194 0.0997759 0.0953599
0.0242618 0.109885 0.049957
-0.0371185 0.0965553 -0.00433118
-0.105003 0.0542593 -0.0544125
-0.171229 -0.00877969 -0.0898967
-0.225916 -0.0802003 -0.114408
-0.259735 -0.14637 -0.137827
-0.264974 -0.197801 -0.16723
-0.235785 -0.233148 -0.208588
-0.170448 -0.258353 -0.258074
-0.0758561 -0.281856 -0.304988
0.0368011 -0.30933 -0.335907
0.152075 -0.340209 -0.344054
0.254906 -0.369595 -0.3274
0.331887 -0.388445 -0.289839
0.372539 -0.379848 -0.237629
0.374594 -0.344446 -0.183525
0.343273 -0.285767 -0.134974
0.291483 -0.212836 -0.094128
0.0821895 0.0498431 0.0476174
0.0807104 0.0866766 0.0437464
0.0625233 0.116502 0.0249747
0.0273776 0.127088 -0.00478133
-0.0237015 0.110475 -0.0385504
-0.083818 0.0611187 -0.0694622
-0.145639 -0.0128357 -0.0972558
-0.199341 -0.0982194 -0.128173
-0.235006 -0.18013 -0.16907
-0.243225 -0.246811 -0.221096
-0.217948 -0.295042 -0.281792
-0.157789 -0.32855 -0.339865
-0.0696636 -0.353629 -0.380588
0.0347667 -0.373862 -0.391395
0.139778 -0.388127 -0.369285
0.230609 -0.39228 -0.318142
0.295284 -0.38075 -0.249653
0.326186 -0.343405 -0.177901
0.322201 -0.285244 -0.115773
0.290385 -0.214538 -0.0692126
0.24287 -0.143267 -0.0392565
0.0600988 0.0616923 -0.0107878
0.0656663 0.101454 -0.0216701
0.0600455 0.132473 -0.0369295
0.040329 0.142248 -0.0550549
0.00543366 0.122279 -0.0736315
-0.0404099 0.0681845 -0.0897915
-0.0915956 -0.0118286 -0.110454
-0.139725 -0.104353 -0.14265
-0.175505 -0.194343 -0.190673
-0.189012 -0.269081 -0.250872
-0.174393 -0.324518 -0.314861
-0.130325 -0.362797 -0.367054
-0.0625295 -0.388333 -0.391539
0.0185489 -0.402733 -0.378336
0.0985838 -0.40409 -0.328205
0.165607 -0.388952 -0.250824
0.210718 -0.354598 -0.162923
0.229431 -0.297001 -0.0843565
0.22189 -0.2243 -0.0243278
0.19541 -0.148089 0.0118028
0.160051 -0.0818589 0.0248436
0.0399792 0.0712633 -0.0484091
0.0514651 0.111425 -0.0643363
0.0573305 0.141472 -0.0778515
0.0533796 0.149495 -0.0884158
0.0363978 0.127558 -0.0964536
0.00783213 0.0725952 -0.1025
-0.0291536 -0.00715386 -0.116654
-0.0682828 -0.0990413 -0.145546
-0.1016 -0.188872 -0.191196
-0.119909 -0.26425 -0.247476
-0.117949 -0.321129 -0.302926
-0.0943321 -0.360627 -0.340954
-0.0529303 -0.385615 -0.346882
-0.00200447 -0.396103 -0.313741
0.047297 -0.389514 -0.24608
0.0867355 -0.362792 -0.156878
0.11082 -0.315407 -0.0645832
0.118153 -0.248086 0.00952183
0.109685 -0.170623 0.0585396
0.0918396 -0.0956771 0.0797265
0.0715825 -0.0367401 0.0759257
0.022902 0.0755055 -0.0612952
0.0369792 0.113114 -0.0786282
0.0499933 0.140036 -0.090684
0.0575612 0.146042 -0.0971043
0.0554268 0.123928 -0.0993455
0.0426645 0.0718373 -0.0999988
0.0205118 -0.00217882 -0.108712
-0.00743252 -0.0867401 -0.130892
-0.0349363 -0.169363 -0.1669
-0.0547941 -0.238998 -0.210496
-0.0626358 -0.291997 -0.250338
-0.057081 -0.328892 -0.271939
-0.0401811 -0.351514 -0.263743
-0.0171583 -0.359249 -0.22161
0.00475191 -0.349175 -0.152366
0.0205006 -0.318546 -0.0689279
0.0276202 -0.26794 0.0117907
0.0267808 -0.201189 0.0713967
0.0194809 -0.12831 0.105027
0.0103997 -0.0611996 0.112141
0.00351443 -0.011114 0.0975223
-0.118737 0.0391873 -0.0789282
-0.139645 -0.00131254 -0.0873984
-0.148371 -0.0642637 -0.085237
-0.138102 -0.134937 -0.0785823
-0.105347 -0.190687 -0.0781278
-0.0514694 -0.215046 -0.0912828
0.0195502 -0.192433 -0.121173
0.101219 -0.128447 -0.158937
0.184553 -0.0409441 -0.187274
0.258693 0.0486375 -0.186329
0.315437 0.121835 -0.140065
0.349689 0.167966 -0.045782
0.360084 0.18453 0.0834619
0.348733 0.17544 0.221643
0.321666 0.147979 0.337202
0.285579 0.10908 0.405322
0.24541 0.0656836 0.413805
0.204793 0.0256767 0.368908
0.16727 -0.00690785 0.288061
0.134322 -0.0296829 0.197217
0.106507 -0.0378828 0.115317
-0.10299 0.0832512 -0.115877
-0.12328 0.0368807 -0.128291
-0.134258 -0.0424811 -0.123806
-0.127746 -0.135135 -0.111467
-0.0995859 -0.212146 -0.105657
-0.0497188 -0.252339 -0.117414
0.0195553 -0.23524 -0.153726
0.103145 -0.166379 -0.20302
0.193058 -0.067321 -0.242497
0.278058 0.0356535 -0.245827
0.348502 0.11994 -0.191599
0.396477 0.173119 -0.0757625
0.417785 0.193224 0.08485
0.412761 0.186599 0.256377
0.386975 0.162276 0.398984
0.34745 0.128561 0.481146
0.300088 0.0918699 0.4879
0.249482 0.0581372 0.429282
0.200748 0.0293778 0.328563
0.157444 0.00674788 0.218285
0.121947 -0.00525982 0.122577
-0.0486976 0.134678 -0.148047
-0.0619459 0.0862249 -0.165536
-0.0728928 -0.00614638 -0.159988
-0.0733252 -0.118151 -0.142779
-0.0586951 -0.21587 -0.131038
-0.026618 -0.273524 -0.139632
0.024019 -0.265564 -0.180087
0.0914111 -0.197452 -0.239307
0.170851 -0.0935185 -0.289787
0.252981 0.0165153 -0.300745
0.327252 0.107058 -0.246507
0.383661 0.164661 -0.121507
0.414981 0.188228 0.0551473
0.418368 0.186426 0.244305
0.397885 0.169643 0.400984
0.360141 0.147213 0.489138
0.310832 0.123842 0.492589
0.255696 0.102269 0.424972
0.201529 0.0811537 0.314356
0.153309 0.059827 0.197471
0.115409 0.0419984 0.10071
0.0401871 0.187479 -0.167343
0.0390681 0.141806 -0.188895
0.0304809 0.0424616 -0.183668
0.02145 -0.0828384 -0.163857
0.0165824 -0.197353 -0.147838
0.0210656 -0.271798 -0.153994
0.0400685 -0.276116 -0.197708
0.0762843 -0.214533 -0.265463
0.129917 -0.112968 -0.32652
0.194145 -0.00283459 -0.348133
0.259323 0.088774 -0.301943
0.31446 0.148144 -0.180946
0.349845 0.175179 -0.00480459
0.359782 0.180465 0.185201
0.345472 0.175078 0.342125
0.313169 0.168165 0.428097
0.267912 0.161852 0.427007
0.215589 0.155348 0.356026
0.163629 0.143015 0.246096
0.118215 0.122928 0.135027
0.0849311 0.0975613 0.0497808
0.148751 0.23392 -0.163812
0.162454 0.196445 -0.186975
0.158489 0.0980518 -0.184013
0.141634 -0.0319997 -0.166203
0.116153 -0.156892 -0.151265
0.0895113 -0.244929 -0.159226
0.0709968 -0.262736 -0.207118
0.067692 -0.212577 -0.281063
0.0843308 -0.119932 -0.349996
0.11794 -0.0161467 -0.381886
0.161267 0.0718141 -0.348212
0.203833 0.130631 -0.241298
0.234671 0.160951 -0.0798933
0.246101 0.174359 0.0959633
0.236671 0.181651 0.240951
0.211387 0.190544 0.317902
0.174157 0.200472 0.312433
0.130717 0.207586 0.244364
0.0884292 0.202659 0.144414
0.0535717 0.18265 0.0489823
0.0317855 0.149334 -0.0160988
0.258235 0.26677 -0.136596
0.286432 0.241597 -0.157553
0.288032 0.152183 -0.157495
0.265109 0.026541 -0.146567
0.221432 -0.100472 -0.139516
0.166266 -0.196686 -0.154701
0.111822 -0.226357 -0.207162
0.0685711 -0.189421 -0.283195