# vtk DataFile Version 2.0
Func
ASCII
DATASET RECTILINEAR_GRID
DIMENSIONS 21 21 21
X_COORDINATES 21 double
-4.7619
-4.28571
-3.80952
-3.33333
-2.85714
-2.38095
-1.90476
-1.42857
-0.952381
-0.47619
0
0.47619
0.952381
1.42857
1.90476
2.38095
2.85714
3.33333
3.80952
4.28571
4.7619
Y_COORDINATES 21 double
-4.7619
-4.28571
-3.80952
-3.33333
-2.85714
-2.38095
-1.90476
-1.42857
-0.952381
-0.47619
0
0.47619
0.952381
1.42857
1.90476
2.38095
2.85714
3.33333
3.80952
4.28571
4.7619
Z_COORDINATES 21 double
-4.7619
-4.28571
-3.80952
-3.33333
-2.85714
-2.38095
-1.90476
-1.42857
-0.952381
-0.47619
0
0.47619
0.952381
1.42857
1.90476
2.38095
2.85714
3.33333
3.80952
4.28571
4.7619
POINT_DATA 9261
SCALARS data double 3
LOOKUP_TABLE default
-0.240451 -0.226711 0.1499
-0.285519 -0.313793 0.155487
-0.317508 -0.388541 0.128537
-0.3351 -0.433621 0.0775913
-0.338669 -0.435687 0.0184938
-0.331171 -0.38759 -0.0302386
-0.318061 -0.302825 -0.0475663
-0.303469 -0.200655 -0.0348435
-0.292218 -0.102025 -0.00294701
-0.285914 -0.0245944 0.0380621
-0.282864 0.0229871 0.0766695
-0.278941 0.040929 0.108872
-0.268852 0.0350278 0.137345
-0.24928 0.0113768 0.167562
-0.219346 -0.0238509 0.200037
-0.181825 -0.068505 0.232888
-0.140803 -0.11791 0.26025
-0.100829 -0.159217 0.268408
-0.0656143 -0.186164 0.254444
-0.0373407 -0.191259 0.217748
-0.0174882 -0.171785 0.16514
-0.286981 -0.269835 0.165196
-0.345083 -0.377778 0.169738
-0.388828 -0.467846 0.138218
-0.415087 -0.520248 0.0822295
-0.423202 -0.518639 0.0197343
-0.417489 -0.458114 -0.0308339
-0.403568 -0.356768 -0.0456581
-0.385813 -0.238294 -0.0280337
-0.368179 -0.127491 0.00732093
-0.352872 -0.0446795 0.0475477
-0.337622 0.00176884 0.0803452
-0.318398 0.0140558 0.102921
-0.290222 0.000271942 0.121082
-0.251035 -0.0321609 0.143734
-0.202111 -0.0756357 0.174137
-0.148255 -0.127846 0.211517
-0.0954496 -0.184134 0.248492
-0.049507 -0.229851 0.266736
-0.0147126 -0.256393 0.261226
0.00814947 -0.255266 0.229468
0.0189645 -0.222433 0.176743
-0.307662 -0.308496 0.146346
-0.370495 -0.434511 0.144661
-0.419353 -0.537613 0.110929
-0.449972 -0.595186 0.0582027
-0.461561 -0.589277 0.00426784
-0.458174 -0.51778 -0.0348354
-0.44446 -0.403039 -0.0383144
-0.424099 -0.273106 -0.0131019
-0.40048 -0.155931 0.0225654
-0.374892 -0.073115 0.0535332
-0.345271 -0.0318175 0.0685684
-0.308068 -0.0272672 0.0680463
-0.259621 -0.0489039 0.0624389
-0.19969 -0.0879312 0.0652796
-0.131808 -0.135966 0.0838168
-0.063728 -0.190929 0.118792
-0.0028135 -0.248978 0.162277
0.0439521 -0.294294 0.193162
0.0723567 -0.316435 0.202858
0.0833385 -0.306403 0.186507
0.0791655 -0.259907 0.147292
-0.299981 -0.334279 0.0947192
-0.360134 -0.473249 0.0835451
-0.407107 -0.586145 0.0500812
-0.437644 -0.64862 0.00833685
-0.450467 -0.640714 -0.0276075
-0.448887 -0.562832 -0.0429631
-0.43639 -0.440858 -0.0263534
-0.414824 -0.305733 0.0098102
-0.386877 -0.187615 0.0436137
-0.352716 -0.108592 0.0587759
-0.310261 -0.0741667 0.0464881
-0.256756 -0.0769056 0.0120676
-0.190446 -0.103992 -0.0280574
-0.113247 -0.145542 -0.0546576
-0.0309722 -0.192996 -0.056325
0.0465267 -0.244819 -0.0301365
0.110503 -0.298986 0.0157047
0.153064 -0.339135 0.0603782
0.171076 -0.353905 0.0892166
0.167012 -0.334877 0.0960264
0.145635 -0.277777 0.0810768
-0.269702 -0.343155 0.0209727
-0.320583 -0.488094 -0.00126655
-0.359856 -0.607204 -0.0321789
-0.385659 -0.674317 -0.0590132
-0.397891 -0.668994 -0.0680419
-0.397666 -0.591168 -0.0503748
-0.387233 -0.469357 -0.00744733
-0.367193 -0.335784 0.0416571
-0.338855 -0.221486 0.0725513
-0.300796 -0.148555 0.0684456
-0.250886 -0.120863 0.024286
-0.187304 -0.128675 -0.0485383
-0.110299 -0.157404 -0.127338
-0.0237447 -0.196473 -0.187299
0.0646689 -0.237745 -0.212977
0.144721 -0.280631 -0.200047
0.206661 -0.325635 -0.156161
0.242066 -0.356393 -0.100445
0.249213 -0.36241 -0.0511337
0.231569 -0.335782 -0.0184438
0.196364 -0.273155 -0.0038852
-0.225081 -0.333575 -0.0618418
-0.264392 -0.478534 -0.0960501
-0.294067 -0.600256 -0.122478
-0.313356 -0.671759 -0.129261
-0.322913 -0.672278 -0.106205
-0.322992 -0.601013 -0.0518056
-0.314784 -0.486592 0.0182716
-0.297835 -0.36093 0.0795781
-0.271967 -0.254692 0.107054
-0.234592 -0.189293 0.0839533
-0.183782 -0.167092 0.0102661
-0.118791 -0.176679 -0.0966758
-0.0415254 -0.202498 -0.209059
0.0429127 -0.233978 -0.298301
0.126054 -0.264111 -0.345604
0.198411 -0.293844 -0.3461
0.250841 -0.326456 -0.307358
0.27552 -0.346263 -0.245093
0.272429 -0.343976 -0.179487
0.245793 -0.312291 -0.123155
0.204262 -0.249111 -0.0804106
-0.182221 -0.306512 -0.126958
-0.212204 -0.446001 -0.169133
-0.234622 -0.566837 -0.190215
-0.249553 -0.642402 -0.179132
-0.25793 -0.651748 -0.129171
-0.259264 -0.592616 -0.0458688
-0.253877 -0.491281 0.0449922
-0.240592 -0.377887 0.115649
-0.218814 -0.28234 0.141106
-0.185712 -0.224715 0.105402
-0.140096 -0.20625 0.012941
-0.0824323 -0.21464 -0.114643
-0.0156008 -0.234174 -0.246522
0.0551456 -0.254928 -0.352578
0.122079 -0.271446 -0.412499
0.177404 -0.286703 -0.421315
0.214237 -0.306431 -0.387056
0.22681 -0.316269 -0.323068
0.216811 -0.307751 -0.249077
0.189052 -0.274331 -0.178946
0.151911 -0.214797 -0.119291
-0.148693 -0.2654 -0.164118
-0.173287 -0.395304 -0.20954
-0.192301 -0.512372 -0.226067
-0.205622 -0.590837 -0.203463
-0.213954 -0.610787 -0.137901
-0.216256 -0.567404 -0.0389018
-0.212156 -0.482627 0.0630485
-0.200908 -0.384491 0.139084
-0.182291 -0.30096 0.16501
-0.15472 -0.250552 0.126151
-0.1184 -0.233887 0.0297651
-0.0750896 -0.23861 -0.100658
-0.0278167 -0.249632 -0.233947
0.0192232 -0.258294 -0.340927
0.0602787 -0.260986 -0.401804
0.0909439 -0.262815 -0.41197
0.107218 -0.271541 -0.380223
0.106575 -0.274517 -0.31884
0.0927082 -0.263595 -0.245514
0.0706595 -0.232166 -0.173747
0.0469919 -0.179362 -0.11166
-0.123625 -0.217095 -0.16941
-0.146627 -0.334342 -0.213394
-0.165886 -0.445893 -0.22706
-0.180148 -0.526515 -0.201141
-0.189115 -0.557288 -0.132626
-0.191433 -0.530714 -0.0320264
-0.186543 -0.463921 0.0703534
-0.174415 -0.381958 0.14676
-0.156162 -0.310409 0.174679
-0.132703 -0.266203 0.140902
-0.106197 -0.249786 0.053789
-0.0798099 -0.24949 -0.0637598
-0.0562264 -0.251495 -0.182617
-0.0378037 -0.248851 -0.276615
-0.0276135 -0.239884 -0.32812
-0.0259842 -0.231737 -0.333537
-0.0329374 -0.233355 -0.302582
-0.0473361 -0.233757 -0.247187
-0.0639205 -0.22486 -0.181829
-0.0775159 -0.198928 -0.118756
-0.0837733 -0.154584 -0.0662845
-0.103218 -0.169404 -0.144168
-0.127602 -0.273613 -0.182154
-0.14947 -0.378173 -0.193998
-0.166222 -0.459137 -0.170993
-0.175952 -0.498495 -0.110134
-0.176991 -0.487025 -0.0208604
-0.168726 -0.437275 0.0716958
-0.152045 -0.371078 0.142794
-0.130088 -0.311143 0.17216
-0.107086 -0.272533 0.148226
-0.0874598 -0.255562 0.0787214
-0.0757819 -0.249702 -0.0161599
-0.0742679 -0.242998 -0.111043
-0.083218 -0.23073 -0.183964
-0.102944 -0.213335 -0.220345
-0.129786 -0.199807 -0.217661
-0.159744 -0.199375 -0.186295
-0.188094 -0.202235 -0.138734
-0.208244 -0.199632 -0.0856209
-0.214844 -0.182184 -0.037107
-0.205787 -0.14612 -0.00127726
-0.0805506 -0.129647 -0.0995302
-0.106222 -0.22207 -0.127905
-0.130132 -0.319273 -0.137807
-0.148484 -0.398746 -0.121078
-0.157546 -0.443381 -0.0740305
-0.155207 -0.443691 -0.00344458
-0.140769 -0.408496 0.0733592
-0.115971 -0.356352 0.135461
-0.0861442 -0.306703 0.164795
-0.0589643 -0.272429 0.151186
-0.0410901 -0.253561 0.100481
-0.0383953 -0.241006 0.0290999
-0.0528686 -0.225219 -0.0418668
-0.0831198 -0.204257 -0.0945606
-0.127126 -0.180979 -0.11726
-0.178006 -0.165945 -0.108063
-0.228436 -0.168043 -0.0773391
-0.270797 -0.177905 -0.037932
-0.297392 -0.185353 0.0025907
-0.302594 -0.178669 0.0362222
-0.285937 -0.150911 0.0555213
-0.05016 -0.102122 -0.0492439
-0.0742909 -0.185218 -0.0660609
-0.0970378 -0.275296 -0.0726271
-0.113979 -0.351709 -0.0613349
-0.119788 -0.398255 -0.0278104
-0.111868 -0.406663 0.0240825
-0.0893159 -0.383058 0.0848804
-0.054427 -0.342751 0.137159
-0.0143369 -0.301611 0.164537
0.0204631 -0.269954 0.157869
0.0415332 -0.247231 0.120727
0.0419929 -0.225932 0.0658317
0.0196554 -0.199409 0.010552
-0.0231131 -0.169034 -0.0302404
-0.082763 -0.140565 -0.0466716
-0.15046 -0.126025 -0.0367602
-0.216763 -0.133626 -0.00995781
-0.272337 -0.153593 0.0215722
-0.308637 -0.173794 0.0519253
-0.319701 -0.179626 0.0747466
-0.305762 -0.160578 0.0833877
-0.0105543 -0.0876124 -0.00734999
-0.0286554 -0.163777 -0.012783
-0.0455138 -0.246979 -0.0139148
-0.0569308 -0.319006 -0.00370769
-0.0566357 -0.364688 0.022285
-0.0416809 -0.378096 0.062172
-0.0108629 -0.363638 0.1121
0.033404 -0.333332 0.156889
0.0830218 -0.299185 0.181102
0.125934 -0.268495 0.176301
0.152758 -0.239789 0.144177
0.156112 -0.207178 0.094735
0.13323 -0.167314 0.042945
0.0866104 -0.125314 0.00235394
0.0203775 -0.0903449 -0.0177103
-0.0561 -0.0759404 -0.0145202
-0.132669 -0.0896044 0.00420765
-0.199573 -0.120471 0.0283029
-0.247668 -0.154306 0.0519621
-0.270666 -0.173471 0.0697791
-0.268563 -0.164325 0.0758599
0.0345768 -0.0841344 0.0138484
0.0272574 -0.155011 0.0173666
0.0213126 -0.231489 0.0234312
0.0197304 -0.298227 0.0382663
0.0286347 -0.341463 0.0657051
0.0510073 -0.358093 0.104408
0.0882732 -0.351393 0.152347
0.138259 -0.330009 0.194961
0.19303 -0.301775 0.217054
0.240621 -0.270563 0.210539
0.271782 -0.233732 0.176051
0.279309 -0.187086 0.122283
0.259789 -0.130874 0.0633471
0.215186 -0.0742201 0.0129972
0.149267 -0.0301158 -0.0188469
0.070671 -0.0136934 -0.0282494
-0.0109498 -0.0319114 -0.0207876
-0.0864347 -0.0724536 -0.00387508
-0.146264 -0.119132 0.0158395
-0.183855 -0.151608 0.0332699
-0.197959 -0.153963 0.0430602
0.0787978 -0.0866982 0.0091169
0.0859245 -0.152265 0.0167718
0.0946022 -0.221851 0.0298001
0.10596 -0.283213 0.0538216
0.124796 -0.324268 0.0910032
0.153499 -0.344348 0.138879
0.193427 -0.345622 0.193809
0.242941 -0.333107 0.240493
0.295412 -0.310227 0.263427
0.340686 -0.277226 0.254598
0.370859 -0.230399 0.214459
0.379732 -0.167451 0.151686
0.363617 -0.092488 0.0807039
0.323661 -0.018722 0.0163236
0.262508 0.0369678 -0.0302958
0.187112 0.0578768 -0.0539907
0.10567 0.0371999 -0.0583608
0.0260838 -0.0109419 -0.0479116
-0.0421233 -0.0686118 -0.0304746
-0.0922511 -0.11341 -0.0114511
-0.121858 -0.128379 0.00413218
0.113967 -0.0885264 -0.0220808
0.137235 -0.147894 -0.016875
0.162374 -0.20967 0.000247834
0.188271 -0.265913 0.0346504
0.217067 -0.306421 0.0870136
0.25002 -0.331705 0.152123
0.287921 -0.342364 0.221554
0.329651 -0.339541 0.278402
0.370892 -0.322245 0.306849
0.404867 -0.287153 0.298696
0.426141 -0.229859 0.254968
0.430311 -0.150179 0.185226
0.414121 -0.0561147 0.104754
0.377969 0.0352031 0.0293868
0.322883 0.103412 -0.0286061
0.253537 0.129947 -0.0632037
0.176304 0.108806 -0.0766793
0.097661 0.0553479 -0.0717004
0.026689 -0.0108811 -0.0570229
-0.0299067 -0.065928 -0.0381601
-0.0690154 -0.0934159 -0.0197189
0.133401 -0.0862075 -0.0723673
0.171382 -0.137902 -0.07588
0.211753 -0.19191 -0.059152
0.251132 -0.243544 -0.0167531
0.28838 -0.285428 0.0507915
0.323031 -0.317608 0.135663
0.35497 -0.338778 0.222728
0.383376 -0.346103 0.293227
0.406611 -0.334547 0.331499
0.422082 -0.297649 0.329152
0.427443 -0.2308 0.288148
0.420562 -0.136022 0.219111
0.399378 -0.0248922 0.137917
0.36393 0.0821234 0.0605919
0.313565 0.161721 -0.000286544
0.250783 0.19446 -0.038463
0.180256 0.175104 -0.0558858
0.107184 0.119226 -0.0552607
0.039724 0.0474865 -0.0450585
-0.0155347 -0.0157578 -0.0303654
-0.0553568 -0.0542724 -0.0154174
0.132922 -0.0780756 -0.122028
0.180987 -0.121215 -0.135609
0.232342 -0.167798 -0.12242
0.281582 -0.215532 -0.0778944
0.323957 -0.259632 -0.00213661
0.357768 -0.299127 0.0956464
0.381523 -0.330391 0.195079
0.394464 -0.347204 0.276268
0.39739 -0.341181 0.324321
0.391901 -0.303558 0.331262
0.378796 -0.230005 0.299495
0.358357 -0.124562 0.239855
0.330202 -0.00156127 0.167691
0.29443 0.116292 0.0978936
0.248917 0.204091 0.0427164
0.193908 0.242203 0.00816057
0.132582 0.226001 -0.00816285
0.0692292 0.170259 -0.0102735
0.0106808 0.0963867 -0.00488589
-0.0367703 0.0278475 0.00382661
-0.0701512 -0.0189266 0.0113024
0.118573 -0.0642531 -0.156682
0.169784 -0.0981163 -0.180191
0.225058 -0.137298 -0.173323
0.27754 -0.181536 -0.131546
0.320585 -0.227966 -0.0561157
0.350527 -0.273823 0.0447007
0.364849 -0.313423 0.147708
0.362833 -0.337928 0.233836
0.346862 -0.336787 0.289075
0.321947 -0.299964 0.306096
0.291709 -0.223938 0.287276
0.258757 -0.114397 0.242681
0.224609 0.0127092 0.186097
0.189714 0.133912 0.130387
0.150625 0.224537 0.0867429
0.106222 0.265577 0.0600639
0.0581012 0.252826 0.0475394
0.0091058 0.199896 0.0438132
-0.0357579 0.12765 0.0447311
-0.070922 0.0581199 0.0466257
-0.0937954 0.00719106 0.0449044
0.094548 -0.0463533 -0.16595
0.142547 -0.0709308 -0.195927
0.194748 -0.102933 -0.196164
0.24467 -0.14338 -0.161865
0.284237 -0.190378 -0.0941748
0.308572 -0.239748 -0.00153547
0.314208 -0.284218 0.0943134
0.300632 -0.313593 0.176415
0.271228 -0.316443 0.232692
0.23295 -0.282542 0.256362
0.191447 -0.209407 0.249609
0.151091 -0.103706 0.220954
0.11493 0.0183953 0.181851
0.0834647 0.134298 0.142712
0.0531178 0.221146 0.112722
0.0218758 0.261728 0.0953845
-0.0109712 0.25208 0.0881284
-0.0439488 0.203978 0.085065
-0.0738092 0.136911 0.0831163
-0.0960426 0.0710451 0.0792961
-0.108674 0.0209407 0.0701519
0.0688152 -0.0275579 -0.147707
0.107939 -0.0435705 -0.177924
0.150616 -0.0687909 -0.183242
0.191689 -0.104238 -0.158794
0.223715 -0.148932 -0.105223
0.240945 -0.197847 -0.0304382
0.240093 -0.242809 0.0481185
0.220357 -0.273433 0.117154
0.185921 -0.278757 0.167125
0.143744 -0.249499 0.19209
0.100155 -0.184177 0.193727
0.06021 -0.0897218 0.178364
0.0273853 0.0187943 0.154575
0.00278586 0.121235 0.130183
-0.0169456 0.197605 0.111687
-0.0346921 0.233455 0.102229
-0.0521157 0.225901 0.0994417
-0.0694372 0.184581 0.0980154
-0.0852136 0.126202 0.0950288
-0.096332 0.0682291 0.0884584
-0.101508 0.0236904 0.075764
-0.286068 -0.271475 0.207334
-0.334731 -0.379443 0.219072
-0.367063 -0.474109 0.187717
-0.382565 -0.53507 0.12504
-0.383608 -0.54506 0.0507676
-0.373661 -0.492928 -0.0119984
-0.35963 -0.3937 -0.0378297
-0.345916 -0.26983 -0.0274856
-0.337714 -0.146768 0.00610611
-0.335498 -0.045111 0.0508091
-0.336122 0.0243481 0.0921465
-0.33445 0.0611376 0.124986
-0.324014 0.070724 0.152701
-0.300971 0.0583607 0.182733
-0.263946 0.0281516 0.216607
-0.216838 -0.0191763 0.253524
-0.164553 -0.0790791 0.287199
-0.113242 -0.135053 0.301049
-0.0675667 -0.179003 0.289624
-0.030883 -0.19879 0.250919
-0.00561784 -0.187191 0.191011
-0.335475 -0.314785 0.228567
-0.398099 -0.446241 0.238252
-0.443299 -0.559769 0.199932
-0.468869 -0.631311 0.129448
-0.476309 -0.639676 0.0497762
-0.470124 -0.575511 -0.0158765
-0.457081 -0.458676 -0.0388733
-0.441479 -0.316761 -0.0222881
-0.42734 -0.179761 0.0162816
-0.415484 -0.0712228 0.0607026
-0.401909 -0.00172219 0.0954624
-0.381889 0.0306767 0.116785
-0.349592 0.0341225 0.131832
-0.302748 0.0152813 0.152225
-0.242572 -0.0208335 0.183136
-0.175381 -0.0740148 0.225416
-0.108368 -0.14032 0.270951
-0.0493508 -0.201384 0.29756
-0.00376773 -0.246613 0.297111
0.0265438 -0.261917 0.265069
0.0412043 -0.23817 0.205719
-0.350879 -0.349961 0.203452
-0.418893 -0.500699 0.204011
-0.470862 -0.629653 0.16135
-0.503149 -0.708702 0.0934895
-0.516704 -0.714528 0.0235422
-0.515446 -0.640245 -0.0283396
-0.504356 -0.510007 -0.0372402
-0.486726 -0.356542 -0.0106556
-0.465719 -0.21356 0.0295073
-0.441075 -0.105992 0.0640101
-0.409344 -0.0428848 0.0786972
-0.366769 -0.0189896 0.0735887
-0.30955 -0.0230291 0.0613918
-0.237683 -0.0467538 0.0591168
-0.15523 -0.0846588 0.0768528
-0.0717712 -0.137646 0.117092
0.00389804 -0.203454 0.170944
0.0627705 -0.262889 0.212805
0.0995 -0.303553 0.230807
0.11447 -0.310381 0.217422
0.110767 -0.273765 0.174547
-0.332343 -0.37037 0.135956
-0.398044 -0.533855 0.122769
-0.449868 -0.673395 0.0787371
-0.484802 -0.758296 0.0229466
-0.50258 -0.763093 -0.0257547
-0.505768 -0.683254 -0.0489855
-0.497521 -0.546769 -0.0333478
-0.478757 -0.389668 0.00721039
-0.451503 -0.248347 0.0461137
-0.41479 -0.148045 0.0632411
-0.365681 -0.0955227 0.0473592
-0.301907 -0.0818365 0.00441359
-0.222516 -0.0925282 -0.0459726
-0.130182 -0.117859 -0.0803023
-0.0318609 -0.152235 -0.0840889
0.0609522 -0.197983 -0.052577
0.137988 -0.255865 0.00469863
0.189588 -0.306812 0.0624682
0.211715 -0.337815 0.102666
0.207086 -0.334379 0.116202
0.182318 -0.287156 0.101787
-0.288222 -0.374153 0.0407677
-0.344845 -0.542236 0.0120153
-0.39075 -0.687065 -0.030235
-0.423755 -0.775852 -0.0688527
-0.443693 -0.782776 -0.0857445
-0.450518 -0.703181 -0.0695775
-0.445372 -0.568014 -0.0224574
-0.42742 -0.415251 0.0335243
-0.397159 -0.282106 0.0693884
-0.352666 -0.193544 0.0651209
-0.291695 -0.15377 0.0140614
-0.213737 -0.150248 -0.0706156
-0.120802 -0.165577 -0.162226
-0.0179847 -0.188728 -0.231221
0.0854437 -0.214356 -0.259296
0.178132 -0.246644 -0.240965
0.249048 -0.29013 -0.185349
0.288659 -0.326764 -0.115561
0.294843 -0.344778 -0.0528641
0.272162 -0.330846 -0.0106555
0.230576 -0.276842 0.00817325
-0.228187 -0.359889 -0.0631309
-0.273245 -0.525711 -0.108019
-0.311029 -0.670868 -0.145952
-0.339748 -0.761679 -0.161176
-0.358963 -0.77268 -0.140113
-0.36737 -0.698984 -0.0805336
-0.364468 -0.572132 -0.00173663
-0.348274 -0.430534 0.0681762
-0.317692 -0.310808 0.100236
-0.270452 -0.236853 0.0748605
-0.205359 -0.210252 -0.00831423
-0.123785 -0.215322 -0.129053
-0.0301352 -0.232343 -0.255072
0.0689532 -0.249509 -0.353193
0.163263 -0.262261 -0.402193
0.243013 -0.277127 -0.397261
0.298352 -0.302685 -0.347883
0.321289 -0.322629 -0.272585
0.312134 -0.327087 -0.193989
0.276927 -0.304232 -0.127291
0.22754 -0.247558 -0.0779499
-0.173969 -0.329849 -0.142573
-0.210011 -0.487509 -0.19808
-0.241839 -0.628308 -0.230312
-0.267973 -0.719586 -0.224825
-0.287235 -0.736394 -0.172242
-0.297398 -0.673084 -0.0792892
-0.296849 -0.559562 0.0231409
-0.282858 -0.433005 0.103563
-0.254196 -0.32934 0.133432
-0.209167 -0.27061 0.0944477
-0.148099 -0.256092 -0.0082857
-0.074214 -0.267691 -0.149494
0.00679438 -0.284109 -0.293781
0.0880382 -0.293289 -0.406972
0.160377 -0.291775 -0.467207
0.216385 -0.288829 -0.470582
0.249578 -0.296486 -0.427557
0.255033 -0.30088 -0.353397
0.235611 -0.293815 -0.269298
0.198282 -0.265189 -0.190712
0.154603 -0.209676 -0.124685
-0.136039 -0.287545 -0.184814
-0.167612 -0.432965 -0.244468
-0.19732 -0.566103 -0.271692
-0.222994 -0.65586 -0.25325
-0.242684 -0.679206 -0.183419
-0.253468 -0.628892 -0.0735382
-0.252935 -0.531035 0.0407688
-0.239242 -0.421625 0.126883
-0.211975 -0.334614 0.157478
-0.17153 -0.290054 0.115896
-0.120323 -0.285454 0.0107246
-0.0633075 -0.301236 -0.130684
-0.00618143 -0.315333 -0.27291
0.045351 -0.316014 -0.383594
0.0847965 -0.301213 -0.442495
0.108975 -0.282846 -0.447049
0.115269 -0.275749 -0.408634
0.103232 -0.268846 -0.340878
0.0785275 -0.254921 -0.262419
0.0485592 -0.224788 -0.186648
0.0221653 -0.173661 -0.121192
-0.114472 -0.240274 -0.186481
-0.145894 -0.370771 -0.244006
-0.176971 -0.494581 -0.268168
-0.204082 -0.58172 -0.247172
-0.22393 -0.611072 -0.175808
-0.233334 -0.573886 -0.0660868
-0.229959 -0.492241 0.0472396
-0.213242 -0.399879 0.133103
-0.184698 -0.328299 0.166234
-0.148012 -0.29563 0.131609
-0.108148 -0.298182 0.0390849
-0.0717008 -0.315861 -0.08485
-0.0435437 -0.326686 -0.207465
-0.0272313 -0.31978 -0.300479
-0.0257192 -0.294682 -0.346911
-0.037268 -0.26566 -0.346057
-0.0593976 -0.24918 -0.310348
-0.0879661 -0.236803 -0.252483
-0.115048 -0.222153 -0.187642
-0.133315 -0.195265 -0.126525
-0.137168 -0.15097 -0.0756682
-0.103687 -0.194639 -0.15075
-0.138274 -0.31035 -0.200625
-0.173069 -0.423691 -0.223205
-0.202826 -0.506642 -0.207274
-0.22252 -0.539776 -0.147137
-0.228723 -0.513873 -0.053057
-0.219439 -0.447193 0.0472025
-0.195623 -0.370786 0.12624
-0.16147 -0.313106 0.161279
-0.124645 -0.290134 0.138989
-0.0928675 -0.29719 0.0683385
-0.0742277 -0.314454 -0.0275607
-0.0725628 -0.321003 -0.120516
-0.0890171 -0.307566 -0.18747
-0.123 -0.275716 -0.215419
-0.168104 -0.241689 -0.205323
-0.216923 -0.222402 -0.170324
-0.261029 -0.211322 -0.123549
-0.290661 -0.202138 -0.0760811
-0.298614 -0.183259 -0.0352498
-0.282529 -0.146758 -0.00640985
-0.0948281 -0.157162 -0.0931087
-0.132736 -0.259773 -0.131038
-0.170689 -0.362946 -0.151933
-0.202038 -0.440622 -0.145055
-0.219929 -0.474908 -0.103404
-0.220516 -0.457582 -0.0334824
-0.202111 -0.403792 0.0470009
-0.167047 -0.341456 0.115084
-0.122345 -0.295419 0.150225
-0.07965 -0.279169 0.140408
-0.0493663 -0.287088 0.0921709
-0.0409161 -0.300349 0.0240864
-0.0574937 -0.300136 -0.040577
-0.0982563 -0.279699 -0.083531
-0.159727 -0.243266 -0.0951245
-0.231836 -0.208596 -0.0772254
-0.303291 -0.192244 -0.0429583
-0.362334 -0.188538 -0.00600481
-0.397802 -0.190335 0.0257182
-0.402429 -0.183374 0.0477393
-0.37609 -0.156125 0.055952
-0.0796258 -0.131523 -0.0316236
-0.117977 -0.224047 -0.0554539
-0.15577 -0.318222 -0.0728396
-0.185581 -0.390257 -0.0735628
-0.198981 -0.423586 -0.0494721
-0.191593 -0.412351 -0.00302355
-0.161828 -0.369368 0.0579475
-0.11294 -0.319039 0.114347
-0.0543206 -0.282113 0.147114
-0.00082555 -0.269158 0.14513
0.0349242 -0.273541 0.112113
0.0424586 -0.278013 0.0623653
0.0184991 -0.266878 0.0151309
-0.0349541 -0.236891 -0.0144306
-0.112694 -0.195718 -0.0185058
-0.202492 -0.162462 0.00110319
-0.29078 -0.152855 0.0321943
-0.363882 -0.160879 0.0613907
-0.409699 -0.177737 0.0823957
-0.420619 -0.18573 0.092418
-0.397225 -0.169221 0.0883371
-0.053715 -0.117777 0.0160869
-0.0876309 -0.202959 0.00585081
-0.120238 -0.289196 -0.0052288
-0.144244 -0.355499 -0.00757059
-0.15028 -0.386574 0.00711389
-0.133518 -0.379847 0.0391149
-0.0922392 -0.346468 0.0874376
-0.0300005 -0.306844 0.13523
0.0424116 -0.277182 0.163981
0.108326 -0.264596 0.163201
0.153769 -0.261304 0.134421
0.1677 -0.252073 0.089032
0.14606 -0.2252 0.0440008
0.0910086 -0.181771 0.0135684
0.00818488 -0.133604 0.00541441
-0.0896381 -0.101144 0.018645
-0.18838 -0.0991793 0.0427773
-0.273935 -0.120324 0.0660309
-0.333647 -0.153659 0.0820807
-0.359319 -0.1779 0.088526
-0.350744 -0.173834 0.0828498
-0.0182882 -0.11341 0.0352501
-0.0422303 -0.192899 0.0353841
-0.0640755 -0.272008 0.0330899
-0.0776809 -0.332868 0.0368004
-0.0738295 -0.361752 0.053885
-0.0475613 -0.359532 0.0855242
0.00300825 -0.335915 0.13261
0.0745338 -0.306815 0.178527
0.156126 -0.283416 0.204553
0.23113 -0.268841 0.200522
0.285384 -0.254116 0.166906
0.307952 -0.226435 0.113993
0.293732 -0.178815 0.0583732
0.244245 -0.117333 0.0152625
0.164367 -0.0585155 -0.00645064
0.0659871 -0.0242525 -0.00620596
-0.0377085 -0.0284844 0.00761852
-0.133304 -0.0617599 0.0256315
-0.207873 -0.110824 0.0405884
-0.252486 -0.151287 0.0495802
-0.264824 -0.161241 0.0502122
0.0219167 -0.113095 0.0211212
0.0127982 -0.186528 0.0256087
0.00635947 -0.258631 0.032039
0.00686676 -0.314934 0.0480993
0.0220861 -0.34338 0.0785519
0.0563395 -0.347531 0.1231
0.111369 -0.335276 0.180239
0.184485 -0.317488 0.23194
0.266073 -0.299967 0.258813
0.341504 -0.281563 0.250816
0.397907 -0.252408 0.208541
0.425412 -0.20263 0.142785
0.418294 -0.130547 0.0710944
0.37708 -0.047607 0.0105376
0.304947 0.0248778 -0.0281843
0.211781 0.0635693 -0.0430913
0.108774 0.0549269 -0.0406802
0.0079218 0.0112908 -0.0275462
-0.0779684 -0.0514877 -0.012177
-0.139446 -0.106765 0.00128164
-0.172115 -0.131422 0.0105049
0.0586153 -0.109808 -0.025167
0.0671453 -0.175851 -0.024518
0.0790184 -0.240043 -0.0126927
0.0959232 -0.292606 0.0175153
0.122718 -0.323439 0.0685025
0.162372 -0.337003 0.136197
0.216009 -0.338669 0.212559
0.281464 -0.333728 0.277413
0.351678 -0.322566 0.310879
0.415899 -0.299778 0.302847
0.463993 -0.255161 0.255007
0.488109 -0.182186 0.179698
0.482844 -0.0847103 0.0958896
0.447788 0.0204223 0.0221458
0.38391 0.10763 -0.0294437
0.298364 0.151589 -0.0560273
0.200138 0.140425 -0.0628153
0.0996133 0.0886369 -0.05465
0.00899935 0.014676 -0.0409585
-0.0619094 -0.0528235 -0.0264273
-0.10741 -0.0915 -0.0130138
0.0844431 -0.101158 -0.0934411
0.110159 -0.158076 -0.104329
0.140031 -0.214395 -0.0926104
0.172879 -0.263954 -0.051066
0.20982 -0.299603 0.0206163
0.251742 -0.324759 0.114801
0.298695 -0.341738 0.21431
0.348862 -0.350204 0.296561
0.398177 -0.345499 0.342146
0.440852 -0.318498 0.340845
0.470447 -0.259332 0.295857
0.481802 -0.165 0.221153
0.470935 -0.04458 0.136562
0.436961 0.0803367 0.0608218
0.378693 0.1805 0.00618662
0.300689 0.230092 -0.0242304
0.209967 0.218676 -0.0354391
0.11541 0.161853 -0.0325196
0.0281261 0.0802687 -0.0243015
-0.0421341 0.00299442 -0.014998
-0.0892498 -0.0476291 -0.00596464
0.0933728 -0.0865102 -0.158381
0.132132 -0.133435 -0.182127
0.176222 -0.182182 -0.174266
0.221638 -0.229346 -0.128652
0.265303 -0.270521 -0.0448082
0.306407 -0.307334 0.0672901
0.34342 -0.338686 0.183425
0.374534 -0.359394 0.279527
0.398578 -0.36062 0.33744
0.414901 -0.33056 0.347701
0.421073 -0.260271 0.314204
0.414951 -0.15005 0.251272
0.394739 -0.013183 0.177981
0.359607 0.125353 0.111369
0.306586 0.234376 0.0631505
0.237303 0.288287 0.0362335
0.157229 0.277997 0.0251002
0.07404 0.219059 0.0234246
-0.00273754 0.133743 0.024509
-0.0638242 0.0502203 0.0255452
-0.103459 -0.00907319 0.0249842
0.0899024 -0.066821 -0.202568
0.13496 -0.103366 -0.238403
0.186251 -0.144531 -0.23759
0.237582 -0.189479 -0.194001
0.283373 -0.235696 -0.109037
0.320224 -0.282294 0.00823607
0.345278 -0.325046 0.129676
0.356768 -0.355086 0.232314
0.355472 -0.360922 0.299417
0.345134 -0.329383 0.322555
0.327254 -0.253101 0.305626
0.302854 -0.135177 0.261854
0.272823 0.00837393 0.20806
0.236879 0.151102 0.158352
0.190475 0.262358 0.123037
0.13358 0.317388 0.103945
0.0695954 0.308512 0.0953801
0.00416614 0.250567 0.0898019
-0.0554569 0.165962 0.0837035
-0.101192 0.0812157 0.075164
-0.128035 0.0176314 0.0628075
0.0757743 -0.044403 -0.213128
0.120503 -0.0708756 -0.256168
0.17148 -0.104694 -0.263064
0.222423 -0.146725 -0.227527
0.265715 -0.195339 -0.150943
0.296162 -0.247593 -0.0428713
0.3097 -0.296814 0.0702497
0.304703 -0.332113 0.168189
0.283476 -0.341023 0.236936
0.252465 -0.310375 0.268711
0.216319 -0.234653 0.267179
0.17871 -0.118889 0.243368
0.142865 0.0199888 0.210836
0.108695 0.156206 0.180365
0.0718875 0.261586 0.159762
0.0309734 0.313878 0.149748
-0.0136496 0.306224 0.145168
-0.0584911 0.251999 0.138424
-0.0986925 0.172507 0.127489
-0.127904 0.0919847 0.11142
-0.142206 0.0297168 0.0899696
0.0577677 -0.0229385 -0.187844
0.0959547 -0.0402939 -0.229756
0.139459 -0.067124 -0.241521
0.18304 -0.10449 -0.21701
0.219105 -0.151633 -0.156979
0.241251 -0.204357 -0.0704844
0.245478 -0.254497 0.0214371
0.229997 -0.290637 0.103311
0.198432 -0.300817 0.164287
0.157772 -0.273201 0.197612
0.114181 -0.204064 0.206229
0.0727506 -0.0994168 0.198141
0.0375202 0.0245711 0.183052
0.00958315 0.144761 0.168498
-0.0149649 0.236587 0.159392
-0.0389021 0.281555 0.156402
-0.0635191 0.274653 0.155253
-0.0878774 0.22701 0.149499
-0.109768 0.156913 0.137464
-0.124873 0.0855342 0.119084
-0.130418 0.029864 0.09463
-0.291009 -0.277581 0.26076
-0.335132 -0.398247 0.279491
-0.361705 -0.509066 0.246259
-0.371176 -0.586748 0.174622
-0.367201 -0.609901 0.087548
-0.354206 -0.564771 0.0127031
-0.339663 -0.464483 -0.0204863
-0.327914 -0.332286 -0.0124061
-0.32298 -0.195261 0.0222011
-0.324393 -0.0756623 0.0689991
-0.328582 0.0145656 0.110706
-0.329688 0.0741384 0.140897
-0.320839 0.10717 0.163496
-0.298028 0.116324 0.188049
-0.259992 0.102253 0.21811
-0.209753 0.0621272 0.254714
-0.153675 -0.000754439 0.291987
-0.0985922 -0.068699 0.311107
-0.0499209 -0.130485 0.303992
-0.0114816 -0.169079 0.266284
0.0135542 -0.172852 0.2036
-0.333959 -0.312265 0.285986
-0.390266 -0.455632 0.300967
-0.428557 -0.586679 0.25816
-0.448106 -0.677687 0.176064
-0.451846 -0.702737 0.0817004
-0.444634 -0.648737 0.00312815
-0.433749 -0.53307 -0.0265673
-0.422619 -0.384091 -0.0106517
-0.413775 -0.233675 0.0306907
-0.40649 -0.106904 0.078285
-0.396433 -0.0153898 0.113415
-0.378219 0.04233 0.131035
-0.34593 0.0731988 0.139328
-0.297439 0.0809416 0.152703
-0.234258 0.0662142 0.178916
-0.161973 0.0246471 0.221237
-0.0896089 -0.0422064 0.271892
-0.0259042 -0.115138 0.305695
0.0229009 -0.180312 0.311633
0.0545805 -0.217997 0.282239
0.068382 -0.213797 0.221057
-0.338427 -0.335761 0.253841
-0.399282 -0.496251 0.256482
-0.444788 -0.642723 0.206618
-0.473007 -0.743055 0.126029
-0.485979 -0.768557 0.0419628
-0.48721 -0.707635 -0.0210883
-0.481582 -0.581364 -0.0341865
-0.470756 -0.423347 -0.00593478
-0.456087 -0.269357 0.0385569
-0.435542 -0.145608 0.0766214
-0.405707 -0.0617651 0.0910355
-0.362591 -0.0123722 0.08099
-0.302852 0.013113 0.0607924
-0.227235 0.019897 0.0506894
-0.140247 0.00837416 0.0637123
-0.0508896 -0.0278848 0.104877
0.0301129 -0.090535 0.165364
0.0929171 -0.160194 0.216119
0.131556 -0.221274 0.242569
0.146359 -0.252888 0.234106
0.140706 -0.239202 0.191286
-0.306587 -0.344686 0.17025
-0.365331 -0.514906 0.154975
-0.412821 -0.670472 0.101754
-0.447076 -0.776436 0.0335573
-0.468476 -0.802221 -0.0269595
-0.478357 -0.737796 -0.0574111
-0.478763 -0.607952 -0.0423133
-0.468381 -0.449629 0.00246541
-0.447209 -0.301546 0.0466615
-0.412844 -0.189696 0.0670364
-0.362909 -0.120718 0.0498245
-0.295589 -0.0843946 0.00091181
-0.211087 -0.0661341 -0.0579106
-0.113507 -0.0589997 -0.099746
-0.0103113 -0.0629669 -0.107249
0.0872722 -0.0867145 -0.0733946
0.16761 -0.136598 -0.00817432
0.220789 -0.194377 0.0596552
0.242408 -0.24428 0.109786
0.235451 -0.265852 0.130237
0.207893 -0.243335 0.117875
-0.248421 -0.339521 0.0543576
-0.299367 -0.510939 0.0193327
-0.344152 -0.668849 -0.0332928
-0.38089 -0.776366 -0.0829089
-0.409052 -0.803192 -0.10788
-0.426553 -0.739111 -0.0939911
-0.432215 -0.612158 -0.0434881
-0.422727 -0.461562 0.0186835
-0.396853 -0.327165 0.0600409
-0.35181 -0.23396 0.0581783
-0.286633 -0.184974 0.00481178
-0.202138 -0.164943 -0.0859892
-0.102225 -0.155018 -0.184975
0.00600887 -0.146314 -0.259473
0.112757 -0.139148 -0.288932
0.206987 -0.144706 -0.266412
0.277155 -0.174721 -0.202121
0.314335 -0.213415 -0.122339
0.316655 -0.246771 -0.0495861
0.289482 -0.255856 1.86644e-05
0.244755 -0.226436 0.0219555
-0.176178 -0.320868 -0.0680231
-0.216957 -0.486461 -0.122701
-0.256671 -0.640543 -0.171572