# vtk DataFile Version 2.0
Func
ASCII
DATASET RECTILINEAR_GRID
DIMENSIONS 21 21 21
X_COORDINATES 21 double
-4.7619
-4.28571
-3.80952
-3.33333
-2.85714
-2.38095
-1.90476
-1.42857
-0.952381
-0.47619
0
0.47619
0.952381
1.42857
1.90476
2.38095
2.85714
3.33333
3.80952
4.28571
4.7619
Y_COORDINATES 21 double
-4.7619
-4.28571
-3.80952
-3.33333
-2.85714
-2.38095
-1.90476
-1.42857
-0.952381
-0.47619
0
0.47619
0.952381
1.42857
1.90476
2.38095
2.85714
3.33333
3.80952
4.28571
4.7619
Z_COORDINATES 21 double
-4.7619
-4.28571
-3.80952
-3.33333
-2.85714
-2.38095
-1.90476
-1.42857
-0.952381
-0.47619
0
0.47619
0.952381
1.42857
1.90476
2.38095
2.85714
3.33333
3.80952
4.28571
4.7619
POINT_DATA 9261
SCALARS data double 3
LOOKUP_TABLE default
0.0448284 -0.0866625 -0.0793582
0.047516 -0.144304 -0.08955
0.0468736 -0.206266 -0.0786794
0.0407553 -0.263843 -0.0476632
0.0275773 -0.305391 -0.00290991
0.00562529 -0.325414 0.0453943
-0.0245327 -0.31929 0.0863595
-0.0622365 -0.284381 0.12001
-0.102878 -0.224524 0.146974
-0.140997 -0.149933 0.165202
-0.17179 -0.0728118 0.172054
-0.191619 -0.00635129 0.160801
-0.19832 0.0390968 0.124335
-0.191274 0.0585878 0.0590638
-0.169751 0.0534996 -0.0274815
-0.134727 0.0299719 -0.123761
-0.0896719 -0.00136291 -0.211589
-0.0397599 -0.0305188 -0.26888
0.0086581 -0.0497011 -0.287446
0.0482305 -0.0576008 -0.266602
0.0720573 -0.0538833 -0.215078
0.0790181 -0.0911891 -0.104
0.0850775 -0.15403 -0.116849
0.0838114 -0.223417 -0.103508
0.0725131 -0.28913 -0.0657079
0.0497649 -0.338251 -0.011988
0.0151389 -0.363997 0.0458404
-0.0294775 -0.360568 0.0939868
-0.0820346 -0.325532 0.133518
-0.136516 -0.263476 0.166644
-0.185536 -0.185844 0.190345
-0.223091 -0.10605 0.200634
-0.244549 -0.037911 0.187992
-0.24784 0.00857827 0.142562
-0.232789 0.0295511 0.0600489
-0.198828 0.0275477 -0.0501978
-0.148296 0.00975692 -0.172568
-0.0862124 -0.013641 -0.28329
-0.0201689 -0.0339239 -0.353087
0.0419558 -0.0463365 -0.374069
0.0905784 -0.0498906 -0.345965
0.116938 -0.045116 -0.279448
0.109958 -0.0902492 -0.130279
0.11885 -0.153385 -0.14644
0.117467 -0.225416 -0.133656
0.102901 -0.295836 -0.0941723
0.0744786 -0.35079 -0.0381167
0.0323496 -0.382113 0.0220402
-0.0203545 -0.382731 0.0710966
-0.0809756 -0.350475 0.112261
-0.14249 -0.290793 0.149343
-0.196909 -0.216023 0.178718
-0.237388 -0.1401 0.194973
-0.258721 -0.0763463 0.18569
-0.258949 -0.0331805 0.138255
-0.238269 -0.0122278 0.0477179
-0.196031 -0.009692 -0.0752769
-0.135321 -0.0176724 -0.211859
-0.0625316 -0.0275304 -0.333836
0.0129254 -0.0329957 -0.407274
0.0821317 -0.034198 -0.425865
0.134248 -0.0312385 -0.39073
0.15933 -0.0256152 -0.31384
0.130565 -0.0800862 -0.157874
0.141802 -0.139589 -0.179662
0.141618 -0.210494 -0.171613
0.128038 -0.282401 -0.136896
0.100563 -0.341648 -0.0858538
0.0597256 -0.378277 -0.0317532
0.00875696 -0.383764 0.010994
-0.0502569 -0.356492 0.0485805
-0.110327 -0.302675 0.0869286
-0.163863 -0.235214 0.1222
-0.204078 -0.168114 0.147638
-0.225523 -0.113536 0.147923
-0.226084 -0.0776233 0.107728
-0.205648 -0.0592204 0.021154
-0.163112 -0.0530595 -0.100136
-0.101555 -0.0507009 -0.234998
-0.0274703 -0.0456009 -0.352839
0.0489055 -0.0343243 -0.419575
0.11804 -0.0224595 -0.4296
0.168198 -0.0112747 -0.387027
0.189557 -0.00407675 -0.305531
0.139307 -0.0605081 -0.184508
0.152846 -0.113746 -0.213246
0.156383 -0.180809 -0.212632
0.14874 -0.252294 -0.186851
0.129922 -0.314238 -0.147933
0.09957 -0.355762 -0.10688
0.0599779 -0.366064 -0.0764487
0.0120447 -0.344394 -0.0473684
-0.0386502 -0.297791 -0.0111887
-0.0860036 -0.239519 0.0286928
-0.123917 -0.183573 0.0643341
-0.14694 -0.140805 0.0780194
-0.152413 -0.114954 0.0523386
-0.139162 -0.102034 -0.0194464
-0.105179 -0.0950909 -0.125163
-0.0527767 -0.085326 -0.241695
0.0122595 -0.067867 -0.338904
0.0803715 -0.0421028 -0.387283
0.141667 -0.017742 -0.383046
0.184776 0.00213442 -0.332629
0.200624 0.0122456 -0.252406
0.139112 -0.0325358 -0.201316
0.156475 -0.0779661 -0.235065
0.167464 -0.140919 -0.242699
0.171085 -0.21189 -0.229813
0.167145 -0.277134 -0.208217
0.154441 -0.323344 -0.185518
0.133306 -0.337584 -0.171697
0.102483 -0.320129 -0.154758
0.0652055 -0.27922 -0.124104
0.0257278 -0.228783 -0.0821377
-0.0107504 -0.183221 -0.0378708
-0.0386761 -0.152371 -0.0104497
-0.054298 -0.137835 -0.0181723
-0.0547264 -0.133096 -0.0678174
-0.0367064 -0.129378 -0.147429
-0.00128222 -0.117418 -0.232813
0.047281 -0.0934548 -0.296163
0.100726 -0.0585178 -0.316675
0.149385 -0.02506 -0.293592
0.182629 0.00201238 -0.236698
0.192566 0.016237 -0.164232
0.138327 -1.99424e-05 -0.200782
0.160829 -0.0382238 -0.235068
0.181182 -0.098455 -0.247595
0.197956 -0.170348 -0.245848
0.210253 -0.239684 -0.240983
0.215808 -0.290143 -0.236919
0.212691 -0.306889 -0.240773
0.197624 -0.291163 -0.238287
0.17149 -0.252616 -0.21678
0.137094 -0.2064 -0.177164
0.0990486 -0.167981 -0.129098
0.0632698 -0.146838 -0.0922834
0.0349 -0.143111 -0.085017
0.0186857 -0.148402 -0.113622
0.0190607 -0.15213 -0.166225
0.0361291 -0.144265 -0.218424
0.0671047 -0.121149 -0.245608
0.105372 -0.0841995 -0.236329
0.141387 -0.0464845 -0.19363
0.165535 -0.0143337 -0.130748
0.171012 0.00521108 -0.0677361
0.142813 0.0316487 -0.173167
0.170389 -0.00124602 -0.200849
0.199035 -0.0613579 -0.212461
0.22647 -0.136266 -0.217487
0.250996 -0.210224 -0.226037
0.269559 -0.264079 -0.239264
0.278491 -0.281356 -0.260778
0.273121 -0.26403 -0.274292
0.25277 -0.22377 -0.26526
0.219413 -0.17739 -0.232789
0.177503 -0.142001 -0.186846
0.133484 -0.127426 -0.147124
0.0937545 -0.133125 -0.131416
0.0645354 -0.149565 -0.145306
0.0510324 -0.164436 -0.176904
0.0541557 -0.166701 -0.202164
0.0719578 -0.151748 -0.199715
0.0990143 -0.119828 -0.166082
0.125971 -0.0826186 -0.107294
0.143916 -0.0474434 -0.0401246
0.146755 -0.0213026 0.0139567
0.156391 0.0565847 -0.114008
0.186911 0.025973 -0.127231
0.2192 -0.0359109 -0.131688
0.25002 -0.114209 -0.138488
0.277421 -0.191799 -0.15695
0.298288 -0.247086 -0.186418
0.30839 -0.262504 -0.225672
0.303139 -0.240925 -0.256406
0.281583 -0.196198 -0.262638
0.245578 -0.146904 -0.241557
0.199807 -0.111964 -0.203192
0.151149 -0.101908 -0.167004
0.10654 -0.11607 -0.150199
0.0726917 -0.144387 -0.157605
0.0547848 -0.172929 -0.177593
0.0535671 -0.189375 -0.186749
0.0671538 -0.187489 -0.166297
0.0903766 -0.165106 -0.118059
0.113932 -0.131455 -0.0505385
0.12926 -0.0940674 0.0176716
0.130663 -0.0596188 0.0646524
0.178867 0.0713016 -0.0305268
0.208657 0.0408424 -0.0234562
0.237244 -0.0230307 -0.0163957
0.260985 -0.10329 -0.0217292
0.278573 -0.181678 -0.0477787
0.287915 -0.235198 -0.0928456
0.285994 -0.246236 -0.149746
0.270037 -0.218846 -0.19805
0.2404 -0.169183 -0.220722
0.199488 -0.117392 -0.213203
0.152434 -0.0837433 -0.185421
0.106116 -0.0791336 -0.156687
0.0667909 -0.102642 -0.144001
0.0401916 -0.143723 -0.151789
0.0304267 -0.186864 -0.169225
0.0368994 -0.218429 -0.173905
0.056871 -0.230502 -0.14871
0.084483 -0.218034 -0.096688
0.110612 -0.187887 -0.0285403
0.12682 -0.147624 0.036838
0.127333 -0.103527 0.0786942
0.201698 0.0729316 0.0606132
0.225736 0.0413951 0.0882134
0.242733 -0.0228984 0.106208
0.249335 -0.101494 0.101691
0.245889 -0.175745 0.0676514
0.232355 -0.222975 0.00642298
0.208525 -0.226934 -0.0680512
0.174804 -0.193392 -0.133045
0.133976 -0.140718 -0.170725
0.089254 -0.0900396 -0.175096
0.0460242 -0.0618718 -0.155993
0.0103951 -0.0664992 -0.132957
-0.0133694 -0.102014 -0.123536
-0.0218951 -0.156965 -0.13261
-0.0130689 -0.21425 -0.151059
0.0103685 -0.259132 -0.15807
0.0442867 -0.282434 -0.137524
0.0816589 -0.276605 -0.0904883
0.113913 -0.247086 -0.028894
0.132849 -0.201632 0.0297066
0.1326 -0.146814 0.0670957
0.216006 0.0620919 0.138776
0.229777 0.0296737 0.181079
0.229252 -0.0315099 0.204477
0.212129 -0.102842 0.196445
0.181142 -0.166482 0.151839
0.139039 -0.202161 0.0737971
0.0893792 -0.196676 -0.0171914
0.0363739 -0.158153 -0.0962359
-0.0143425 -0.106798 -0.144992
-0.0588836 -0.0637969 -0.15649
-0.0921205 -0.0483216 -0.140541
-0.109631 -0.0685469 -0.117159
-0.110224 -0.120375 -0.105019
-0.0938852 -0.190645 -0.110361
-0.0611679 -0.26063 -0.126651
-0.0171945 -0.314904 -0.135459
0.0325703 -0.343888 -0.12174
0.0801701 -0.338657 -0.0833044
0.118186 -0.304785 -0.0321693
0.139216 -0.250776 0.0167247
0.137755 -0.184337 0.048594
0.216445 0.0422901 0.186922
0.217708 0.0108793 0.234035
0.197784 -0.042181 0.254796
0.155977 -0.0995453 0.237838
0.097571 -0.145652 0.180421
0.0283395 -0.16472 0.0868918
-0.0443252 -0.148244 -0.0173769
-0.112631 -0.107272 -0.106063
-0.168381 -0.0631654 -0.160775
-0.207341 -0.0360299 -0.174107
-0.225275 -0.0418939 -0.155642
-0.220237 -0.0851245 -0.125492
-0.194682 -0.158063 -0.103308
-0.152363 -0.244939 -0.0971153
-0.0968609 -0.325397 -0.103413
-0.0353394 -0.383941 -0.106969
0.0259654 -0.411708 -0.0947084
0.0790774 -0.400067 -0.0623188
0.118427 -0.356376 -0.0209624
0.138327 -0.290629 0.0175099
0.134504 -0.212448 0.0419153
0.204087 0.0187413 0.198692
0.194111 -0.00861329 0.240767
0.157869 -0.0483668 0.252371
0.0965464 -0.0856852 0.22374
0.0175004 -0.108559 0.154648
-0.0708267 -0.10735 0.0507447
-0.158 -0.0794755 -0.0606858
-0.233597 -0.0392095 -0.153381
-0.287677 -0.00823795 -0.20957
-0.316041 -0.00446438 -0.221875
-0.31588 -0.0391847 -0.199007
-0.288151 -0.111532 -0.159937
-0.238902 -0.209177 -0.124106
-0.175409 -0.313057 -0.100861
-0.104206 -0.401307 -0.0895087
-0.0337259 -0.459071 -0.0784899
0.0299262 -0.479322 -0.0580876
0.0799792 -0.455432 -0.0248411
0.113312 -0.397849 0.0114006
0.126967 -0.318688 0.0415101
0.119076 -0.229594 0.0571893
0.1835 -0.00353197 0.180391
0.166457 -0.023782 0.211232
0.121074 -0.0464852 0.210883
0.0500713 -0.0600615 0.171739
-0.0381226 -0.0569675 0.0957035
-0.133223 -0.0345466 -0.0106201
-0.223192 0.0033942 -0.121382
-0.296372 0.0396186 -0.212174
-0.3422 0.0530752 -0.266743
-0.356875 0.0290173 -0.278219
-0.33926 -0.0381504 -0.253621
-0.293091 -0.141663 -0.209112
-0.227329 -0.26417 -0.162058
-0.151907 -0.383255 -0.121854
-0.0757427 -0.475983 -0.0897489
-0.00758272 -0.528787 -0.0578123
0.047459 -0.537231 -0.0208339
0.0850175 -0.498062 0.0208834
0.104748 -0.425359 0.0584469
0.107067 -0.333426 0.0841068
0.0931955 -0.235603 0.0916043
0.161865 -0.0212087 0.146817
0.143742 -0.0325597 0.165535
0.098547 -0.0374996 0.156732
0.0296548 -0.0275529 0.113924
-0.0544538 -6.50192e-05 0.0401811
-0.142991 0.0411184 -0.0576756
-0.223775 0.0863175 -0.158508
-0.285462 0.115994 -0.241802
-0.318027 0.110742 -0.293823
-0.31832 0.0594654 -0.308648
-0.286793 -0.0377117 -0.2907
-0.229329 -0.168512 -0.251421
-0.156681 -0.311217 -0.203724
-0.0801528 -0.440819 -0.154961
-0.0101077 -0.534106 -0.106862
0.0451649 -0.57927 -0.0542572
0.08241 -0.574965 0.00314733
0.10002 -0.521629 0.0588923
0.100289 -0.43608 0.10385
0.0872525 -0.334762 0.130251
0.0654002 -0.231948 0.132195
0.145474 -0.0313712 0.112996
0.13229 -0.0332805 0.124307
0.0958736 -0.0218275 0.11443
0.0394911 0.00834782 0.0783971
-0.0296028 0.05574 0.0182743
-0.101005 0.110796 -0.0599708
-0.164032 0.159428 -0.142221
-0.208585 0.180976 -0.213539
-0.226027 0.158329 -0.263693
-0.213913 0.0841856 -0.287921
-0.173884 -0.0363165 -0.287279
-0.11299 -0.186563 -0.266965
-0.0425425 -0.341852 -0.233357
0.0260415 -0.475867 -0.189604
0.0819311 -0.566042 -0.136329
0.118028 -0.60285 -0.0699204
0.132874 -0.587493 0.00531905
0.127504 -0.523873 0.0759375
0.106408 -0.4304 0.13167
0.0765607 -0.324782 0.162932
0.0453936 -0.221397 0.163673
0.133573 -0.0338892 0.0883854
0.128336 -0.0272006 0.0979179
0.105113 -0.00288036 0.0933847
0.0664546 0.0419149 0.071179
0.0181657 0.102328 0.0316064
-0.0310702 0.164959 -0.0217036
-0.072591 0.212935 -0.0814923
-0.0984884 0.226017 -0.13858
-0.102021 0.189823 -0.186499
-0.0815947 0.100521 -0.221695
-0.0395441 -0.0330422 -0.242038
0.0169613 -0.191694 -0.246764
0.0772824 -0.349639 -0.235691
0.131127 -0.480883 -0.207279
0.168482 -0.564578 -0.160104
0.183889 -0.593542 -0.0911886
0.177436 -0.570898 -0.00821562
0.152202 -0.503039 0.0705806
0.113766 -0.408217 0.133676
0.0709398 -0.304637 0.170001
0.0326553 -0.205523 0.172885
0.118421 -0.0301174 0.0728271
0.119989 -0.017042 0.0844986
0.109649 0.0150256 0.0888019
0.089218 0.0669767 0.0825899
0.0627749 0.132119 0.064414
0.0371645 0.194955 0.0361232
0.0182107 0.238132 -0.000748111
0.0112642 0.243113 -0.042177
0.0206722 0.198681 -0.0851442
0.0467898 0.10378 -0.127531
0.0867642 -0.0307138 -0.165171
0.134023 -0.185163 -0.192963
0.179517 -0.334819 -0.205597
0.215082 -0.455755 -0.197409
0.232753 -0.529853 -0.164895
0.228885 -0.552036 -0.10536
0.205278 -0.526595 -0.0274836
0.166053 -0.460836 0.0493356
0.117242 -0.371438 0.113178
0.0676984 -0.275736 0.151625
0.0260521 -0.185067 0.157754
0.0981541 -0.0236956 0.0634848
0.103379 -0.00743308 0.0783619
0.102531 0.026697 0.0906578
0.0964711 0.0786124 0.0974121
0.0880611 0.140798 0.0963953
0.082184 0.197724 0.0879537
0.0820095 0.233276 0.0703705
0.0901694 0.231774 0.0438082
0.108734 0.185113 0.00840838
0.136917 0.0941173 -0.0351012
0.171615 -0.0299516 -0.0818482
0.207384 -0.168898 -0.124635
0.237309 -0.300818 -0.155305
0.255758 -0.405207 -0.165519
0.257326 -0.467328 -0.150554
0.240316 -0.483929 -0.107632
0.207327 -0.45947 -0.0443247
0.162777 -0.401066 0.0221719
0.11228 -0.322594 0.079487
0.0635884 -0.2393 0.115702
0.0234294 -0.160635 0.124673
0.0711159 -0.0174652 0.0556459
0.0762799 -0.000996947 0.0720712
0.080199 0.0303302 0.0877834
0.0830368 0.0757596 0.100768
0.0867201 0.128255 0.108434
0.0941576 0.174492 0.111076
0.106467 0.201132 0.106008
0.124235 0.195937 0.0916731
0.147449 0.153412 0.066122
0.174297 0.0752991 0.029083
0.201837 -0.0286858 -0.0152971
0.2259 -0.143419 -0.0601805
0.24192 -0.251124 -0.0973346
0.246623 -0.335498 -0.118071
0.237319 -0.385118 -0.117718
0.213775 -0.398018 -0.0930219
0.179242 -0.377855 -0.0496985
0.137573 -0.330325 -0.000295222
0.0933753 -0.26579 0.0442459
0.0525241 -0.197237 0.0737122
0.0189771 -0.132263 0.0834842
0.071432 -0.0947971 -0.105259
0.075487 -0.160245 -0.114762
0.0736539 -0.230492 -0.0960012
0.0635213 -0.29397 -0.0512952
0.0438325 -0.337567 0.00970511
0.0133279 -0.355262 0.0727766
-0.0260715 -0.342405 0.123437
-0.0727274 -0.296983 0.161751
-0.120486 -0.224013 0.189887
-0.162364 -0.136048 0.206598
-0.192569 -0.0468337 0.210136
-0.207134 0.029177 0.193058
-0.204836 0.0809005 0.14701
-0.186623 0.103096 0.0675165
-0.153849 0.0970957 -0.0358922
-0.109525 0.0697923 -0.148923
-0.0578354 0.0324276 -0.250289
-0.00472778 -0.00406222 -0.314921
0.0433643 -0.0317942 -0.333664
0.0797647 -0.0478625 -0.306353
0.0982199 -0.0511083 -0.243545
0.114085 -0.0977175 -0.138668
0.121237 -0.166648 -0.151115
0.117055 -0.242139 -0.128384
0.0984673 -0.311249 -0.0745229
0.0649114 -0.360225 -0.00220913
0.0169501 -0.382052 0.0725634
-0.0414733 -0.371231 0.131719
-0.106666 -0.326345 0.176806
-0.170613 -0.253324 0.21215
-0.223999 -0.165618 0.235631
-0.259778 -0.0776973 0.243875
-0.272859 -0.00402776 0.225834
-0.26269 0.0453024 0.169525
-0.231174 0.0666373 0.0695236
-0.180667 0.0627814 -0.0624701
-0.116164 0.0417707 -0.207079
-0.0440198 0.013934 -0.336046
0.0270254 -0.0115736 -0.415726
0.0887055 -0.0302445 -0.436766
0.132646 -0.0400099 -0.399689
0.151526 -0.0405845 -0.317747
0.150468 -0.0942381 -0.17292
0.159388 -0.160355 -0.189523
0.152848 -0.234661 -0.167301
0.127669 -0.304552 -0.111541
0.084546 -0.35615 -0.0369491
0.0250048 -0.38169 0.0399314
-0.0451903 -0.374891 0.0997186
-0.12128 -0.334873 0.146743
-0.193872 -0.268435 0.187478
-0.253131 -0.189333 0.219107
-0.291063 -0.111748 0.236295
-0.301984 -0.048683 0.224039
-0.285824 -0.00771908 0.166578
-0.245155 0.010441 0.0575814
-0.182512 0.0101394 -0.0898384
-0.104258 0.000187184 -0.252007
-0.0183695 -0.0113047 -0.395097
0.0642052 -0.0183831 -0.479559
0.133916 -0.0219066 -0.497475
0.181276 -0.0216504 -0.451258
0.198322 -0.0186282 -0.356183
0.172006 -0.0810842 -0.207327
0.181629 -0.139788 -0.231219
0.173928 -0.208341 -0.215139
0.147207 -0.275005 -0.165821
0.102695 -0.327131 -0.098119
0.0423345 -0.356052 -0.029454
-0.0278402 -0.354456 0.0223679
-0.103575 -0.322474 0.065546
-0.175518 -0.267457 0.109281
-0.23446 -0.202966 0.150103
-0.27253 -0.1422 0.180704
-0.283752 -0.0958244 0.182033
-0.267922 -0.0680429 0.134589
-0.227106 -0.0559573 0.0307361
-0.163277 -0.0534372 -0.115071
-0.0827794 -0.0512402 -0.276211
0.00614097 -0.044106 -0.415498
0.0915636 -0.0297567 -0.492606
0.163176 -0.0151438 -0.500454
0.210319 -0.0023341 -0.44518
0.225132 0.00548409 -0.344537
0.178054 -0.058473 -0.23956
0.188501 -0.107502 -0.272619
0.182979 -0.167937 -0.266327
0.161275 -0.229869 -0.228591
0.125406 -0.281171 -0.176161
0.0759326 -0.313431 -0.123861
0.0176522 -0.317282 -0.0867374
-0.0467804 -0.294133 -0.0525694
-0.109555 -0.252039 -0.00930189
-0.1635 -0.204085 0.0395735
-0.201523 -0.162377 0.0849033
-0.217499 -0.135098 0.10425
-0.210267 -0.122964 0.0752567
-0.180151 -0.119457 -0.0108439
-0.127542 -0.116465 -0.13883
-0.0575702 -0.104672 -0.2794
0.0224002 -0.0811806 -0.395551
0.101082 -0.0473069 -0.451693
0.167716 -0.0151026 -0.442966
0.211323 0.0106243 -0.378704
0.224282 0.024101 -0.280364
0.172681 -0.0280286 -0.259102
0.186501 -0.0668704 -0.299071
0.188726 -0.12015 -0.303692
0.179837 -0.178473 -0.282338
0.161581 -0.230507 -0.251173
0.132925 -0.266426 -0.221059
0.0960002 -0.274877 -0.20302
0.0505344 -0.258638 -0.181595
0.00154587 -0.226913 -0.142533
-0.0462199 -0.192762 -0.0886166
-0.0866089 -0.167781 -0.0307792
-0.113146 -0.158172 0.00645529
-0.122829 -0.161645 -0.000510538
-0.113288 -0.168529 -0.0604724
-0.0826522 -0.168688 -0.15846
-0.0340157 -0.152694 -0.263483
0.027275 -0.119268 -0.340829
0.0914651 -0.0720943 -0.36487
0.14797 -0.0266681 -0.334459
0.185776 0.00957333 -0.263195
0.197581 0.0292483 -0.175224
0.166485 0.00578248 -0.258463
0.18642 -0.0250767 -0.30003
0.200364 -0.0745698 -0.311463
0.208464 -0.132541 -0.304077
0.211318 -0.187453 -0.292872
0.205914 -0.22722 -0.284339
0.191154 -0.238652 -0.285914
0.163891 -0.225816 -0.279699
0.126273 -0.199181 -0.249277
0.0812312 -0.172725 -0.196108
0.0344051 -0.158518 -0.132303
-0.0070265 -0.161816 -0.0831872
-0.0377511 -0.178352 -0.0723017
-0.0525025 -0.196227 -0.107737
-0.0471314 -0.203437 -0.17451
-0.02287 -0.190038 -0.241268
0.0170943 -0.155166 -0.276634
0.0650452 -0.103444 -0.265863
0.110563 -0.0513751 -0.212767
0.14295 -0.00820607 -0.135216
0.155023 0.0178253 -0.0599463
0.166359 0.0378289 -0.226238
0.193568 0.0113932 -0.260439
0.219657 -0.0389524 -0.271212
0.243621 -0.100769 -0.271878
0.264447 -0.160563 -0.275814
0.277519 -0.204029 -0.286371
0.279083 -0.21634 -0.307113
0.263808 -0.20227 -0.318037
0.231883 -0.1744 -0.30086
0.185374 -0.148399 -0.255182
0.129914 -0.137785 -0.193684
0.0735762 -0.148025 -0.141559
0.0237652 -0.17408 -0.121435
-0.0119165 -0.202851 -0.140202
-0.027681 -0.220653 -0.182762
-0.0233239 -0.216744 -0.21811
-0.000683418 -0.189236 -0.218662
0.0341546 -0.141904 -0.179143
0.0710943 -0.0899948 -0.10728
0.099693 -0.0436279 -0.0253734
0.11266 -0.0109086 0.03791
0.176029 0.0622393 -0.156845
0.208956 0.0359502 -0.173562
0.243038 -0.0185657 -0.175426
0.275598 -0.0859539 -0.177346
0.304453 -0.150819 -0.191734
0.324429 -0.196594 -0.219807
0.330474 -0.207195 -0.259819
0.31689 -0.188191 -0.289807
0.283405 -0.154545 -0.290131
0.232278 -0.123971 -0.258168
0.169552 -0.111931 -0.206653
0.104033 -0.12484 -0.160163
0.0441708 -0.157781 -0.140151
-0.00143481 -0.19731 -0.152166
-0.0265841 -0.22824 -0.1814
-0.0309013 -0.238635 -0.197721
-0.0158108 -0.224745 -0.176675
0.0131238 -0.187887 -0.119716
0.0459886 -0.140735 -0.0377314
0.0725411 -0.0931381 0.0449123
0.0855874 -0.0527182 0.0987581
0.196865 0.0759236 -0.0580749
0.231818 0.0474337 -0.0493863
0.265873 -0.0117577 -0.0363727
0.295033 -0.0835969 -0.0353337
0.316859 -0.151017 -0.0575669
0.327201 -0.196 -0.102702
0.321969 -0.202241 -0.162449
0.29738 -0.176295 -0.212715
0.254653 -0.135677 -0.232913
0.197285 -0.10004 -0.218216
0.131949 -0.0864828 -0.181043
0.0675857 -0.102201 -0.145356
0.0119496 -0.142439 -0.131856
-0.0273949 -0.193561 -0.145147
-0.0454873 -0.238956 -0.17148
-0.0433918 -0.265345 -0.182244
-0.0233697 -0.266923 -0.155126
0.00839324 -0.241794 -0.0935009
0.0423284 -0.199944 -0.0109912
0.0685265 -0.1508 0.0678733
0.079971 -0.101232 0.115079
0.220156 0.0762202 0.0513733
0.251313 0.0449408 0.0864914
0.275779 -0.016673 0.114103
0.288939 -0.0886435 0.117309
0.28934 -0.153228 0.0861801
0.275348 -0.192581 0.0223758
0.245968 -0.191699 -0.0581621
0.20122 -0.158629 -0.12882
0.145297 -0.113324 -0.168217
0.0833897 -0.0767072 -0.169487
0.0225586 -0.0663547 -0.14464
-0.0291029 -0.0892114 -0.117515
-0.066351 -0.139922 -0.109089
-0.0845527 -0.204213 -0.124185
-0.0814165 -0.264049 -0.151362
-0.0605739 -0.304967 -0.1644
-0.0259631 -0.319518 -0.14242
0.0149766 -0.302827 -0.0867536
0.0534231 -0.263073 -0.0123986
0.0801883 -0.209583 0.0580505
0.0888241 -0.149264 0.0998418
0.237027 0.0637208 0.147736
0.258704 0.0308289 0.20266
0.265589 -0.0284974 0.238218
0.253458 -0.0937761 0.237975
0.222928 -0.14815 0.194012
0.175923 -0.176076 0.109494
0.115948 -0.165736 0.00807208
0.0478085 -0.127332 -0.0810325
-0.0206815 -0.0827821 -0.135762
-0.0827744 -0.0531509 -0.147619
-0.13162 -0.0547026 -0.128274
-0.161115 -0.0924203 -0.101851
-0.169937 -0.158981 -0.0905121
-0.157727 -0.238545 -0.100639
-0.125813 -0.311612 -0.124325
-0.0807595 -0.362967 -0.138819
-0.0282452 -0.384474 -0.124786
0.0232443 -0.369403 -0.0797257
0.0662859 -0.325761 -0.0184632
0.0930963 -0.263596 0.0399528
0.0984132 -0.190843 0.0752745
0.242192 0.0419482 0.210722
0.251066 0.0104396 0.273449
0.236745 -0.0402199 0.306842
0.19633 -0.0906925 0.295958
0.133072 -0.126874 0.235593
0.0527712 -0.137749 0.130734
-0.0362601 -0.116551 0.0110914
-0.12458 -0.0762795 -0.0921428
-0.201002 -0.0399624 -0.156571
-0.257762 -0.0273908 -0.172632
-0.288972 -0.0514233 -0.15147
-0.291496 -0.113082 -0.117186
-0.268597 -0.20146 -0.0931728
-0.224685 -0.298097 -0.0881759
-0.165048 -0.38201 -0.098497
-0.0987222 -0.437981 -0.105899
-0.0324698 -0.458485 -0.0936578
0.025217 -0.436754 -0.0564931
0.0690723 -0.382484 -0.00782867
0.0936072 -0.307455 0.0374499
0.0955117 -0.221568 0.0639201
0.236694 0.0161568 0.232157
0.233443 -0.0100318 0.290349
0.200092 -0.0455362 0.313075
0.135803 -0.0738358 0.287541
0.0463193 -0.0851151 0.211501
-0.0591665 -0.074717 0.0915789
-0.168355 -0.0424017 -0.0397612
-0.26832 -0.00435152 -0.150967
-0.345508 0.0162655 -0.21993
-0.391909 0.00233484 -0.236573
-0.403266 -0.0537074 -0.210808
-0.379945 -0.147161 -0.165335
-0.329587 -0.262133 -0.123526
-0.260923 -0.376665 -0.0962054
-0.182825 -0.468375 -0.0836724
-0.105648 -0.522936 -0.0727713
-0.0360783 -0.534767 -0.0510394
0.0188474 -0.499075 -0.0137484
0.0566699 -0.42886 0.0276975
0.0750432 -0.338451 0.0621353
0.0735126 -0.239946 0.0781119
0.2237 -0.00899994 0.217913
0.212361 -0.0264283 0.263282
0.167326 -0.0423282 0.271165
0.0897322 -0.0439215 0.231748
-0.0130294 -0.0268853 0.145413
-0.129336 0.0061388 0.0197559
-0.244624 0.0481954 -0.113982
-0.344347 0.0801296 -0.226021
-0.414118 0.0797025 -0.295583
-0.446539 0.0336108 -0.312744
-0.439403 -0.0592453 -0.285264
-0.396489 -0.187553 -0.232447
-0.32882 -0.329858 -0.175438
-0.248175 -0.460499 -0.125717
-0.165928 -0.556086 -0.0864932
-0.0922975 -0.603987 -0.0495766
-0.0326842 -0.601563 -0.0082033
0.00882417 -0.547721 0.0385125
0.0329322 -0.459623 0.0806705
0.0408365 -0.354225 0.108985
0.0351766 -0.245636 0.115017
0.209352 -0.0303255 0.184175
0.19619 -0.0373844 0.214812
0.149757 -0.0328884 0.211614
0.0723682 -0.00779209 0.166385
-0.0277921 0.0362378 0.0809927
-0.13845 0.0897505 -0.0369495
-0.244571 0.139061 -0.161536
-0.331957 0.162516 -0.267292
-0.387141 0.139893 -0.336091
-0.404028 0.0622052 -0.358792
-0.382524 -0.0651388 -0.339906
-0.329121 -0.224537 -0.292951
-0.256746 -0.389538 -0.233857
-0.178439 -0.531459 -0.172153
-0.106597 -0.626665 -0.112065
-0.050071 -0.664776 -0.0492783
-0.0117883 -0.646657 0.0168421
0.00752871 -0.575519 0.0803167
0.0114893 -0.471917 0.131165
0.00496715 -0.355479 0.160136
-0.00646895 -0.24125 0.159553
0.198274 -0.0447478 0.147561
0.18981 -0.0414887 0.168464
0.151875 -0.0184665 0.162893
0.0873223 0.0294683 0.124567
0.00362197 0.0957321 0.054221
-0.0872882 0.16477 -0.0418004
-0.172168 0.217767 -0.145941
-0.238434 0.231739 -0.239254
-0.274827 0.189053 -0.30764
-0.276946 0.0851043 -0.343145
-0.246502 -0.0690263 -0.346058
-0.191605 -0.250752 -0.322152
-0.125575 -0.43009 -0.279443
-0.0610598 -0.57668 -0.222681
-0.0101152 -0.667598 -0.155039
0.0208856 -0.695167 -0.0744074
0.0314355 -0.663147 0.0140005
0.0241973 -0.578999 0.0960083
0.0051787 -0.465701 0.160444
-0.0179991 -0.344232 0.195717
-0.0372502 -0.229774 0.194066
0.187443 -0.0516257 0.119561
0.186703 -0.0395795 0.137249
0.162376 -0.00245194 0.137052
0.11721 0.0616963 0.114385
0.0576703 0.142546 0.0679808
-0.00619973 0.2205 0.00120513
-0.063651 0.273377 -0.0767512
-0.105112 0.278472 -0.153869
-0.122264 0.221113 -0.220666
-0.112707 0.100506 -0.270712
-0.0794542 -0.0682067 -0.300303
-0.0309978 -0.259525 -0.307753
0.0203933 -0.442052 -0.292919
0.0639706 -0.58555 -0.254854
0.089526 -0.668897 -0.194115
0.0935746 -0.68703 -0.109473
0.0776817 -0.645865 -0.0105472
0.047169 -0.55608 0.0827587
0.00902336 -0.44102 0.157719
-0.027518 -0.322095 0.200454
-0.0533872 -0.213151 0.202434
0.168434 -0.0514941 0.10066
0.174007 -0.0334884 0.120195
0.163243 0.011518 0.13009
0.138775 0.0829699 0.126342
0.105565 0.168881 0.105527
0.071648 0.247628 0.0690639
0.0441265 0.296323 0.0189346
0.0291759 0.293888 -0.0393331
0.0314252 0.22903 -0.100704
0.0509073 0.10372 -0.160762
0.0835643 -0.0649374 -0.21322
0.121434 -0.251049 -0.250837
0.154342 -0.424284 -0.266847
0.17451 -0.556504 -0.254895
0.174819 -0.629406 -0.212589
0.154526 -0.640047 -0.138912
0.117466 -0.595617 -0.0448673
0.0701729 -0.508057 0.0478891
0.019854 -0.399413 0.125983
-0.0245194 -0.289944 0.173507
-0.054529 -0.191408 0.181544
0.139673 -0.0473141 0.0881124
0.148013 -0.0269803 0.110995
0.147243 0.0190772 0.130253
0.139472 0.0891876 0.141986
0.12859 0.171054 0.141949
0.120508 0.243469 0.130032
0.118866 0.28493 0.103915
0.126193 0.277316 0.0641919
0.143705 0.212641 0.0120144
0.169502 0.094432 -0.0502552
0.198894 -0.0603305 -0.115431
0.22514 -0.227704 -0.173498
0.240718 -0.380615 -0.213829
0.241032 -0.494658 -0.226271
0.222369 -0.555016 -0.206516
0.186489 -0.560425 -0.153025
0.138219 -0.518061 -0.0756405
0.084316 -0.439679 0.00622851
0.0310396 -0.34427 0.0785436
-0.0140279 -0.249545 0.125672
-0.0443348 -0.165249 0.139514
0.101062 -0.0412701 0.0768129
0.108209 -0.0217392 0.100979
0.112448 0.0196958 0.12381
0.115369 0.0809414 0.142649
0.119813 0.150936 0.153143
0.129364 0.211373 0.155157
0.145033 0.243986 0.145139
0.166698 0.234329 0.121318
0.19288 0.177115 0.0819384
0.220238 0.076472 0.0277676
0.244301 -0.0531076 -0.0349858
0.259852 -0.19158 -0.0967309
0.262146 -0.316701 -0.146545
0.249307 -0.40887 -0.173438
0.220598 -0.456567 -0.172659
0.179285 -0.459571 -0.141695
0.130571 -0.423806 -0.0880632
0.0801927 -0.359239 -0.0260678
0.0328338 -0.280853 0.0317416
-0.00587401 -0.203521 0.0719071
-0.0320075 -0.135006 0.0882701
0.102642 -0.0924008 -0.137176
0.109185 -0.156518 -0.146234
0.107708 -0.223934 -0.119458
0.0953035 -0.281522 -0.061062
0.0710038 -0.316688 0.01583
0.0343302 -0.324271 0.0927905
-0.0116404 -0.301215 0.151707
-0.0638628 -0.246821 0.193077
-0.114707 -0.167454 0.220997
-0.155937 -0.0764398 0.235466
-0.180796 0.0130525 0.235732
-0.185596 0.0875584 0.21384
-0.170729 0.137005 0.160353
-0.139652 0.156675 0.0703399
-0.0964558 0.148186 -0.0454538
-0.0466531 0.117505 -0.170124
0.00480676 0.0757076 -0.279865
0.052367 0.0332613 -0.347628
0.0909537 -0.00300657 -0.36376
0.116045 -0.0284468 -0.329537
0.123598 -0.0401174 -0.257728
0.149178 -0.092587 -0.179625
0.157566 -0.156656 -0.191695
0.151562 -0.224593 -0.159368
0.127567 -0.28247 -0.0895465
0.0857222 -0.318272 0.000812218
0.0280283 -0.326505 0.0913566
-0.0397923 -0.30412 0.159703
-0.112158 -0.251552 0.2085
-0.179381 -0.175967 0.244639
-0.23079 -0.0908327 0.267426
-0.258291 -0.00897625 0.274079
-0.257255 0.0572206 0.252141
-0.229346 0.0995515 0.187623
-0.17977 0.115342 0.0742607
-0.114439 0.107851 -0.0745331
-0.0415418 0.0839653 -0.23561
0.0315231 0.0531267 -0.376876
0.0965 0.0233492 -0.461583
0.146582 -0.00184549 -0.479401
0.176134 -0.019159 -0.432805
0.181243 -0.0265341 -0.338221
0.185015 -0.0867989 -0.22018
0.192696 -0.143787 -0.236846
0.180936 -0.204672 -0.204816
0.14629 -0.25688 -0.132899
0.0906508 -0.289742 -0.0404017
0.0174828 -0.298026 0.0519086
-0.0651178 -0.27907 0.120456
-0.150236 -0.234149 0.171466
-0.226628 -0.17093 0.214551
-0.283348 -0.102111 0.248248
-0.311161 -0.0388577 0.267093
-0.305054 0.00925386 0.253505
-0.267514 0.0375501 0.188625
-0.20503 0.0467959 0.0648705
-0.123961 0.0418281 -0.102593
-0.0344719 0.0300699 -0.285019
0.0541378 0.0179404 -0.443549
0.131604 0.00940377 -0.534406
0.189805 0.00277592 -0.548477
0.222252 -0.000944105 -0.490629
0.225384 -0.00193292 -0.380272
0.201415 -0.0724667 -0.257885
0.206651 -0.117903 -0.282959
0.189897 -0.167067 -0.258347
0.149803 -0.20945 -0.194511
0.0891888 -0.237131 -0.110692
0.0121322 -0.245333 -0.0287854
-0.0727947 -0.231467 0.0302024
-0.159182 -0.198245 0.0772656
-0.235982 -0.153274 0.12528
-0.293061 -0.107803 0.171687
-0.321304 -0.0704604 0.208249
-0.315484 -0.0470178 0.212074
-0.277892 -0.0376877 0.159467
-0.214575 -0.0376121 0.0411806
-0.131225 -0.0401813 -0.126059
-0.0378973 -0.0379384 -0.309475
0.0557072 -0.0281188 -0.465722
0.138286 -0.0113855 -0.549488
0.20107 0.00467854 -0.552662
0.2363 0.0176961 -0.484511
0.240294 0.0244564 -0.367572
0.199957 -0.0503748 -0.291031
0.203174 -0.0831012 -0.327047
0.185397 -0.119187 -0.314614
0.14759 -0.151167 -0.265042
0.0935975 -0.172891 -0.19952
0.0257914 -0.181551 -0.137195
-0.0486684 -0.173443 -0.094958
-0.125148 -0.152864 -0.0569118
-0.194428 -0.127544 -0.00718043
-0.248759 -0.106944 0.0510644
-0.279884 -0.0970398 0.106953
-0.282322 -0.0997301 0.133091
-0.256917 -0.110774 0.102077
-0.207472 -0.121292 0.00333406
-0.137488 -0.12279 -0.145498
-0.0550568 -0.10834 -0.308248
0.0310418 -0.0782566 -0.440978
0.110085 -0.0376244 -0.502906
0.172803 0.000586852 -0.488498
0.21041 0.0304157 -0.410979
0.218635 0.045156 -0.297195