# vtk DataFile Version 2.0
Func
ASCII
DATASET RECTILINEAR_GRID
DIMENSIONS 21 21 21
X_COORDINATES 21 double
-4.7619
-4.28571
-3.80952
-3.33333
-2.85714
-2.38095
-1.90476
-1.42857
-0.952381
-0.47619
0
0.47619
0.952381
1.42857
1.90476
2.38095
2.85714
3.33333
3.80952
4.28571
4.7619
Y_COORDINATES 21 double
-4.7619
-4.28571
-3.80952
-3.33333
-2.85714
-2.38095
-1.90476
-1.42857
-0.952381
-0.47619
0
0.47619
0.952381
1.42857
1.90476
2.38095
2.85714
3.33333
3.80952
4.28571
4.7619
Z_COORDINATES 21 double
-4.7619
-4.28571
-3.80952
-3.33333
-2.85714
-2.38095
-1.90476
-1.42857
-0.952381
-0.47619
0
0.47619
0.952381
1.42857
1.90476
2.38095
2.85714
3.33333
3.80952
4.28571
4.7619
POINT_DATA 9261
SCALARS data double 3
LOOKUP_TABLE default
0.228585 0.113691 0.0854697
0.251377 0.0880185 0.09921
0.260066 0.0305229 0.101126
0.252513 -0.0480394 0.0928378
0.229758 -0.130393 0.073306
0.196521 -0.201126 0.0494864
0.157048 -0.249692 0.0241004
0.116959 -0.275059 0.00224076
0.0804122 -0.282893 -0.0114692
0.0500583 -0.278119 -0.0109021
0.0288938 -0.263175 0.00732006
0.0178307 -0.23628 0.04277
0.0152628 -0.195867 0.0884367
0.0185379 -0.145095 0.130834
0.0264494 -0.0910228 0.155089
0.038184 -0.0444226 0.148434
0.0511443 -0.0141816 0.108769
0.0630811 -0.00298758 0.048659
0.072291 -0.00553006 -0.0130512
0.0779747 -0.0129998 -0.0619296
0.0789784 -0.0180124 -0.084714
0.317786 0.123638 0.103703
0.355173 0.100509 0.118815
0.372128 0.042861 0.121137
0.364372 -0.0377704 0.111863
0.332396 -0.123148 0.0897824
0.282694 -0.196083 0.0612339
0.221888 -0.246271 0.0289181
0.158475 -0.274649 -0.000514725
0.0992273 -0.288271 -0.0204504
0.049279 -0.291452 -0.0228052
0.0129882 -0.285952 -0.00239942
-0.0077298 -0.267454 0.0408006
-0.0151073 -0.231595 0.0984146
-0.0125403 -0.180117 0.154167
-0.00190177 -0.119949 0.189137
0.0147115 -0.0633578 0.18757
0.0339404 -0.0222438 0.145897
0.0522256 -0.0014989 0.0787119
0.0673372 0.00228946 0.00601006
0.0779603 -0.00144262 -0.054755
0.0823033 -0.00577629 -0.0867948
0.38528 0.124098 0.109033
0.435339 0.108446 0.122959
0.460501 0.0588949 0.123901
0.454094 -0.0142269 0.113733
0.415745 -0.0934727 0.0909798
0.352524 -0.161739 0.0603146
0.273104 -0.210079 0.024321
0.188722 -0.241461 -0.0100158
0.108753 -0.263724 -0.0349637
0.0401734 -0.279963 -0.0412024
-0.0107757 -0.289778 -0.0218941
-0.0414229 -0.285321 0.024025
-0.0541772 -0.25879 0.0882394
-0.0534226 -0.209952 0.15363
-0.0417831 -0.145924 0.199418
-0.021987 -0.0805304 0.207358
0.00109719 -0.0289185 0.172524
0.0233795 0.00163974 0.108562
0.0426484 0.0119748 0.0345707
0.0574779 0.0115782 -0.0315719
0.0657104 0.00727311 -0.0707624
0.415731 0.118076 0.100084
0.473311 0.113346 0.109859
0.504402 0.0783918 0.1077
0.500269 0.0206321 0.0956812
0.459574 -0.0450322 0.0729
0.38962 -0.102949 0.0426358
0.299829 -0.146249 0.0062089
0.202688 -0.180437 -0.02974
0.109306 -0.213304 -0.0577499
0.0284845 -0.245646 -0.0680329
-0.0324326 -0.273843 -0.0523974
-0.0703504 -0.285962 -0.00817156
-0.0876979 -0.270746 0.0578579
-0.089349 -0.226404 0.12947
-0.0793203 -0.160494 0.186084
-0.0609987 -0.0888224 0.208225
-0.0390001 -0.0299571 0.188753
-0.0173976 0.00700238 0.136728
0.0021485 0.0208711 0.070105
0.0185514 0.0222747 0.00567669
0.0303402 0.0174982 -0.0379524
0.400015 0.108546 0.0777954
0.458224 0.116159 0.081521
0.492019 0.0997525 0.0754767
0.491264 0.0623413 0.0617526
0.454075 0.0154445 0.0398266
0.38645 -0.0285001 0.0128331
0.297462 -0.0649714 -0.0198039
0.199108 -0.101878 -0.0533011
0.10337 -0.14636 -0.0813557
0.0199298 -0.195782 -0.0947479
-0.0434974 -0.242444 -0.0845374
-0.0837985 -0.27017 -0.0461617
-0.103344 -0.264854 0.0163699
-0.107236 -0.224264 0.0894986
-0.10078 -0.15709 0.154611
-0.0881332 -0.0821445 0.19295
-0.0732056 -0.0208059 0.194937
-0.0581927 0.0162988 0.16221
-0.0439303 0.0287369 0.109965
-0.0298971 0.0281677 0.0529608
-0.0166656 0.0216257 0.00786922
0.341586 0.0984495 0.0467762
0.394005 0.117704 0.0438437
0.426993 0.119683 0.0344233
0.43035 0.103464 0.0204654
0.401588 0.0765531 0.00179264
0.345208 0.0475778 -0.019064
0.268697 0.0183157 -0.0445824
0.182081 -0.0210756 -0.0720927
0.0965189 -0.0764293 -0.0969957
0.0213472 -0.141139 -0.111528
-0.0363388 -0.203063 -0.106615
-0.0740231 -0.242128 -0.0761661
-0.0939444 -0.242363 -0.021074
-0.101012 -0.202446 0.0489473
-0.101193 -0.133344 0.118364
-0.0986199 -0.0571958 0.17063
-0.0954621 0.00176357 0.194653
-0.0919119 0.0329016 0.184335
-0.0869528 0.0377514 0.150107
-0.0784787 0.0302838 0.103376
-0.065973 0.0194082 0.0578737
0.260982 0.088476 0.0140053
0.30393 0.116051 0.00606569
0.333838 0.132262 -0.00401613
0.341763 0.133966 -0.0152068
0.325015 0.124935 -0.0276796
0.286044 0.109795 -0.0402056
0.229898 0.0870564 -0.0566632
0.163815 0.0454048 -0.0762307
0.0975435 -0.0186118 -0.0958525
0.0388335 -0.0946702 -0.109096
-0.00668659 -0.166235 -0.107069
-0.0376632 -0.209966 -0.0828814
-0.0563541 -0.209188 -0.0351713
-0.0671921 -0.164868 0.029587
-0.0760446 -0.091561 0.0988554
-0.0863179 -0.0149774 0.158597
-0.09803 0.0381859 0.197221
-0.108791 0.0578673 0.203262
-0.115821 0.0497331 0.182843
-0.115217 0.0303898 0.144395
-0.105512 0.0126328 0.0988883
0.179135 0.0786064 -0.0156986
0.211661 0.109152 -0.0269502
0.237815 0.133012 -0.0353041
0.250138 0.146133 -0.0410118
0.246248 0.150135 -0.0453105
0.226578 0.145794 -0.0481739
0.193639 0.127779 -0.05456
0.152069 0.08472 -0.0648005
0.109309 0.0153528 -0.076893
0.0707969 -0.0666393 -0.0855241
0.0400958 -0.140747 -0.082321
0.0171035 -0.181217 -0.0606551
-0.000512047 -0.171788 -0.0184083
-0.0163708 -0.116862 0.0398268
-0.0354041 -0.0355071 0.103847
-0.0594138 0.0421979 0.16216
-0.0862372 0.0878371 0.203894
-0.111358 0.0926377 0.215649
-0.130171 0.067457 0.201568
-0.137656 0.0324726 0.167705
-0.131478 0.00476385 0.122447
0.117014 0.0657998 -0.0406864
0.141451 0.0928056 -0.0543394
0.165105 0.116778 -0.0605036
0.181727 0.134075 -0.0603681
0.189259 0.145737 -0.0558708
0.186533 0.148794 -0.0485481
0.174239 0.1344 -0.0443183
0.154427 0.0913822 -0.0439074
0.132411 0.0204442 -0.0457868
0.111328 -0.0620785 -0.0458842
0.0927297 -0.132304 -0.0367287
0.0752295 -0.162833 -0.0130333
0.0564895 -0.138542 0.0264886
0.0339262 -0.0677048 0.0776932
0.00419414 0.0256778 0.131858
-0.0325195 0.107044 0.179958
-0.0720109 0.146276 0.213164
-0.108377 0.136162 0.219727
-0.135834 0.0928834 0.203556
-0.149056 0.0408264 0.170139
-0.145209 0.00136247 0.126036
0.0909483 0.0461283 -0.0628254
0.113066 0.0638311 -0.0797667
0.137381 0.0812075 -0.0850424
0.15856 0.0968829 -0.0802065
0.174728 0.111897 -0.0676786
0.183556 0.12005 -0.0510834
0.184675 0.109099 -0.0370965
0.178191 0.0682224 -0.0258516
0.167984 -0.000502921 -0.0154664
0.155624 -0.0790795 -0.00314765
0.141395 -0.141027 0.0172962
0.123352 -0.157911 0.0486987
0.0994532 -0.115837 0.0898546
0.068304 -0.026438 0.135521
0.0284852 0.0817907 0.177553
-0.0178753 0.170286 0.209111
-0.065234 0.207304 0.224546
-0.107361 0.186615 0.21729
-0.138033 0.128299 0.192341
-0.152602 0.0603409 0.155635
-0.148805 0.00804965 0.112801
0.101531 0.0179992 -0.086326
0.127701 0.0221067 -0.10943
0.156619 0.0287168 -0.117365
0.183183 0.0390612 -0.111236
0.205357 0.0544606 -0.0933496
0.220074 0.0663572 -0.0693328
0.226543 0.0593746 -0.0467776
0.223616 0.0228728 -0.0246473
0.214523 -0.0404604 -0.000254581
0.200321 -0.112013 0.0276759
0.181051 -0.16352 0.0636322
0.155154 -0.165927 0.107277
0.121351 -0.10622 0.153916
0.0795991 0.00176425 0.196249
0.0304629 0.126074 0.226166
-0.0223477 0.224979 0.238759
-0.0727277 0.265175 0.232223
-0.115055 0.240326 0.207126
-0.143445 0.172257 0.170457
-0.154743 0.0915641 0.129184
-0.147938 0.0263689 0.0884613
0.138492 -0.0178957 -0.112899
0.173731 -0.0289328 -0.145551
0.210612 -0.0343212 -0.160466
0.243587 -0.0303748 -0.157553
0.269999 -0.0157144 -0.138173
0.286349 -0.00028187 -0.10928
0.291744 -0.00219171 -0.0796477
0.284285 -0.0322955 -0.0469827
0.26712 -0.0880899 -0.00788801
0.241865 -0.151273 0.0370111
0.209355 -0.192529 0.090079
0.169371 -0.18239 0.147643
0.121936 -0.108026 0.20147
0.0684852 0.0160009 0.242222
0.0113441 0.15568 0.261915
-0.0447418 0.267159 0.257491
-0.0938881 0.315641 0.231006
-0.131749 0.293373 0.190027
-0.153496 0.221575 0.143481
-0.157945 0.132208 0.0991744
-0.145743 0.055003 0.0617703
0.184691 -0.0587458 -0.139372
0.230962 -0.0834732 -0.183002
0.277215 -0.0989055 -0.207497
0.317027 -0.0995921 -0.211219
0.346742 -0.0847624 -0.193941
0.362579 -0.0649047 -0.162866
0.363483 -0.0603124 -0.128067
0.34706 -0.0825147 -0.0863864
0.316607 -0.129753 -0.0342511
0.275061 -0.184745 0.0255783
0.224853 -0.217782 0.0931079
0.167814 -0.199157 0.161822
0.10574 -0.115511 0.220946
0.0415681 0.0193874 0.260145
-0.0211125 0.17107 0.272259
-0.0772076 0.294894 0.256158
-0.121715 0.354863 0.217097
-0.151924 0.340613 0.167471
-0.164597 0.270699 0.117091
-0.160583 0.177055 0.0736542
-0.142221 0.089862 0.0408857
0.221913 -0.0997687 -0.156547
0.277245 -0.134632 -0.208444
0.331481 -0.156031 -0.241152
0.377231 -0.157995 -0.25159
0.409734 -0.141031 -0.238002
0.424842 -0.115578 -0.206964
0.42098 -0.103439 -0.169486
0.395294 -0.117143 -0.122238
0.351147 -0.155911 -0.0621932
0.293087 -0.203902 0.0059769
0.225565 -0.2316 0.0801207
0.152824 -0.209278 0.152046
0.0787147 -0.122586 0.210319
0.00758503 0.0166724 0.245383
-0.0563888 0.175063 0.25187
-0.108614 0.308549 0.230691
-0.145507 0.380451 0.189154
-0.166099 0.377125 0.140847
-0.169116 0.313146 0.0948681
-0.157128 0.219163 0.0575342
-0.134005 0.124821 0.0307838
0.238735 -0.136364 -0.155931
0.298257 -0.177393 -0.209212
0.356338 -0.200713 -0.244754
0.405083 -0.200832 -0.258921
0.438882 -0.180194 -0.248782
0.453187 -0.148702 -0.219523
0.445666 -0.128931 -0.182398
0.412979 -0.13451 -0.134556
0.358368 -0.165507 -0.0741111
0.287794 -0.207607 -0.00707673
0.207693 -0.232004 0.0627659
0.124601 -0.209375 0.126977
0.0443468 -0.124455 0.175563
-0.0276217 0.013319 0.201699
-0.0872364 0.172546 0.202893
-0.131172 0.310942 0.182239
-0.157613 0.392026 0.147905
-0.167337 0.399029 0.111103
-0.161194 0.342368 0.078008
-0.142983 0.250719 0.0517548
-0.117504 0.152861 0.0317956
0.230933 -0.16439 -0.129636
0.28788 -0.208127 -0.173909
0.343583 -0.23116 -0.203317
0.390619 -0.228351 -0.214844
0.423182 -0.203749 -0.205767
0.436103 -0.167158 -0.179516
0.426096 -0.140972 -0.146177
0.389674 -0.139474 -0.103847
0.329674 -0.163365 -0.0523144
0.252909 -0.199766 0.0020227
0.167473 -0.221182 0.0546579
0.0818017 -0.199421 0.0984698
0.00332743 -0.118913 0.126937
-0.061904 0.0129935 0.13782
-0.11061 0.167448 0.132284
-0.14143 0.305006 0.1158
-0.154683 0.390303 0.0962339
-0.152692 0.404429 0.0791247
-0.138294 0.35449 0.0652651
-0.116033 0.267082 0.0536273
-0.090996 0.169186 0.0410451
0.201688 -0.180428 -0.0780817
0.249634 -0.224241 -0.102901
0.296703 -0.245738 -0.116865
0.336849 -0.240334 -0.118506
0.364734 -0.212864 -0.10667
0.374811 -0.173078 -0.083784
0.362978 -0.142594 -0.0571118
0.325825 -0.135727 -0.0258279
0.265846 -0.153268 0.00843925
0.189872 -0.183706 0.0399407
0.107 -0.201528 0.0644968
0.0268664 -0.180511 0.0775737
-0.0420882 -0.105671 0.0775051
-0.0937879 0.0171074 0.0676888
-0.126134 0.161803 0.0531794
-0.140244 0.292454 0.0417973
-0.138412 0.375809 0.0401094
-0.124493 0.392471 0.0459389
-0.103071 0.347882 0.0537461
-0.0788673 0.26586 0.0580618
-0.0566563 0.171706 0.0528994
0.1612 -0.183204 -0.0150275
0.195923 -0.225293 -0.0164102
0.229922 -0.245283 -0.0112223
0.259189 -0.2389 0.000496174
0.279776 -0.210889 0.016848
0.2857 -0.17071 0.0359988
0.27259 -0.138445 0.0540872
0.237379 -0.127913 0.0712967
0.1822 -0.139587 0.084851
0.113066 -0.163338 0.090251
0.0392814 -0.17638 0.0845508
-0.0291102 -0.155332 0.0661588
-0.0833543 -0.0867258 0.0379944
-0.117802 0.0243775 0.00817541
-0.131619 0.154938 -0.0150547
-0.128255 0.273087 -0.0225637
-0.111742 0.348829 -0.0096972
-0.087277 0.364151 0.0147934
-0.0607436 0.323588 0.0399917
-0.03669 0.248318 0.0577654
-0.0189782 0.161439 0.0596115
0.116594 -0.173601 0.043908
0.136807 -0.213143 0.0644266
0.156388 -0.232425 0.087122
0.173541 -0.226957 0.109976
0.185649 -0.200981 0.129894
0.18737 -0.163281 0.144343
0.1745 -0.131928 0.15313
0.144197 -0.119351 0.156251
0.0978362 -0.12573 0.150657
0.0399814 -0.142198 0.13334
-0.0208602 -0.149261 0.102646
-0.0750991 -0.127109 0.0593438
-0.114205 -0.0646008 0.0095938
-0.132957 0.0333541 -0.0353474
-0.131094 0.146619 -0.0652001
-0.113377 0.247784 -0.0704642
-0.0851491 0.311231 -0.0479163
-0.0526398 0.321512 -0.0109046
-0.0225821 0.283726 0.0267966
0.00053761 0.216446 0.0537047
0.0139415 0.140028 0.0605664
0.0779499 -0.154706 0.0832758
0.0856669 -0.191235 0.118577
0.0927726 -0.210441 0.152421
0.0986398 -0.207587 0.181535
0.102369 -0.185959 0.20171
0.0997763 -0.153245 0.210993
0.0873506 -0.124999 0.211716
0.0628479 -0.111788 0.203932
0.026574 -0.113549 0.184952
-0.0186453 -0.122712 0.153334
-0.0656229 -0.123428 0.108247
-0.105863 -0.099846 0.0517505
-0.131591 -0.0435735 -0.00857037
-0.138014 0.0403536 -0.06026
-0.125183 0.134725 -0.0927482
-0.0981895 0.216754 -0.0967479
-0.0630855 0.265772 -0.0704144
-0.0266777 0.2699 -0.0280748
0.00453181 0.23481 0.0147917
0.0261955 0.176587 0.0454223
0.0360189 0.11267 0.054777
0.0482024 -0.130982 0.0957915
0.0477517 -0.163712 0.134939
0.046632 -0.182412 0.170688
0.0447136 -0.182599 0.199283
0.0421899 -0.166366 0.216217
0.0366422 -0.140152 0.22056
0.0255273 -0.11681 0.215726
0.00734466 -0.104587 0.201897
-0.0186868 -0.103163 0.177481
-0.0510733 -0.106207 0.142157
-0.0844937 -0.101492 0.0954689
-0.112131 -0.0770473 0.0396696
-0.127553 -0.0272062 -0.0181564
-0.126793 0.0430019 -0.0666153
-0.109611 0.119162 -0.0962546
-0.0808874 0.182936 -0.0995531
-0.046052 0.218281 -0.0751389
-0.0113553 0.217056 -0.0354542
0.0176964 0.18544 0.00462083
0.0370577 0.136833 0.0334438
0.0448767 0.0859308 0.0434566
0.275176 0.157486 0.0630712
0.303534 0.126438 0.0801889
0.315136 0.0546963 0.0904505
0.30702 -0.0422502 0.0935557
0.280003 -0.141785 0.0861134
0.238964 -0.225623 0.0732187
0.188986 -0.278791 0.0555917
0.136553 -0.301869 0.0374077
0.0868896 -0.303782 0.0240331
0.043648 -0.293666 0.0230033
0.0114177 -0.276211 0.038644
-0.00667962 -0.249881 0.07078
-0.0112981 -0.212054 0.111848
-0.00460916 -0.164947 0.147281
0.0120772 -0.114862 0.162139
0.0369322 -0.0731267 0.144028
0.064679 -0.0489497 0.0918669
0.0900385 -0.0430468 0.0213533
0.109032 -0.0489847 -0.0461204
0.119708 -0.0559382 -0.0953638
0.120398 -0.0557035 -0.112816
0.381523 0.177959 0.0734248
0.428471 0.152009 0.0925113
0.451036 0.0807704 0.104476
0.443235 -0.0190728 0.108073
0.404963 -0.123507 0.0990412
0.343706 -0.211414 0.0823787
0.267511 -0.267415 0.0583739
0.186641 -0.294452 0.0326086
0.109362 -0.303667 0.0123601
0.0423741 -0.303564 0.00752703
-0.00830815 -0.298023 0.0245568
-0.0379563 -0.282463 0.063944
-0.0479004 -0.250904 0.116814
-0.0409184 -0.204001 0.165814
-0.0191328 -0.147884 0.191767
0.0138426 -0.095977 0.179
0.0511846 -0.0611209 0.124872
0.0855349 -0.0460708 0.0473958
0.111791 -0.04601 -0.0308958
0.127443 -0.0490577 -0.0916572
0.130552 -0.0471408 -0.117605
0.463398 0.188864 0.07267
0.526348 0.174662 0.0898765
0.559302 0.114388 0.0998613
0.553191 0.0232634 0.101901
0.507042 -0.0753508 0.0913401
0.429507 -0.159657 0.072192
0.331105 -0.215301 0.0444456
0.225707 -0.247418 0.0137866
0.124701 -0.268431 -0.0115734
0.036699 -0.285072 -0.0205775
-0.0303152 -0.298591 -0.00503552
-0.0707665 -0.300124 0.0367591
-0.0863018 -0.27966 0.0962887
-0.0810602 -0.235843 0.155732
-0.0578673 -0.175352 0.194049
-0.0212546 -0.113825 0.19308
0.0202232 -0.0682809 0.14842
0.0585179 -0.0437583 0.0766588
0.0885757 -0.0377399 -0.00111471
0.10786 -0.0377489 -0.0663727
0.114352 -0.0354169 -0.0994257
0.501931 0.192069 0.0606023
0.574356 0.194037 0.0719463
0.61454 0.152785 0.076471
0.611211 0.0801608 0.0741401
0.562441 -0.00357725 0.0611597
0.477458 -0.0778051 0.0406765
0.367844 -0.129845 0.0117715
0.249046 -0.167752 -0.0205141
0.134326 -0.203883 -0.0485624
0.0341788 -0.241642 -0.06129
-0.0425542 -0.278198 -0.0493501
-0.0901385 -0.299657 -0.00928644
-0.110461 -0.292013 0.0523849
-0.108445 -0.252544 0.119294
-0.0886079 -0.188885 0.17103
-0.0558714 -0.11986 0.188224
-0.0181876 -0.0668365 0.163809
0.016762 -0.0365713 0.108276
0.0449073 -0.0280915 0.0409503
0.0642832 -0.0271723 -0.0212383
0.0738743 -0.0254864 -0.0593345
0.486246 0.190141 0.0401552
0.559288 0.20949 0.043148
0.602424 0.191824 0.0402439
0.603155 0.14372 0.0322462
0.559181 0.0810742 0.0164696
0.478447 0.0211707 -0.0037281
0.372133 -0.0255558 -0.0303493
0.254928 -0.0695831 -0.0602297
0.14077 -0.122603 -0.0874647
0.0407947 -0.183096 -0.102277
-0.0362036 -0.242985 -0.0950364
-0.0850335 -0.283085 -0.0603939
-0.107776 -0.286112 -0.00158079
-0.109827 -0.249335 0.0683478
-0.0971197 -0.182266 0.131504
-0.0750719 -0.108267 0.16958
-0.0499869 -0.0525136 0.17248
-0.0267257 -0.0231173 0.141347
-0.00781813 -0.017689 0.0917782
0.00685494 -0.0202711 0.0383592
0.0173539 -0.0213 -0.00251286
0.418856 0.185216 0.0168304
0.484626 0.220446 0.0114854
0.526415 0.22587 0.00168169
0.532201 0.203101 -0.0111216
0.499311 0.163074 -0.0283205
0.433976 0.11869 -0.0464794
0.345353 0.0775374 -0.0684653
0.245572 0.0273428 -0.0930683
0.147083 -0.0420133 -0.116536
0.0601973 -0.12338 -0.131373
-0.00743475 -0.202861 -0.128381
-0.05197 -0.256295 -0.100813
-0.0755576 -0.264256 -0.0483867
-0.0835356 -0.22562 0.0203432
-0.0824217 -0.153242 0.0908788
-0.0770036 -0.0755716 0.147515
-0.0706809 -0.0217237 0.178276
-0.0652076 0.000335567 0.174486
-0.060315 -0.00415426 0.145967
-0.0538393 -0.01606 0.103419
-0.0445973 -0.0232222 0.0599541
0.324209 0.177439 -0.00342395
0.378244 0.223475 -0.0140604
0.415808 0.246202 -0.0267538
0.427258 0.244569 -0.0404212
0.409784 0.224663 -0.0556376
0.367158 0.194657 -0.0698031
0.30542 0.158573 -0.0860154
0.232861 0.102543 -0.104409
0.16008 0.0197324 -0.122946
0.0951154 -0.0775733 -0.135971
0.0436754 -0.169663 -0.134896
0.00766369 -0.228104 -0.112409
-0.0152258 -0.23267 -0.0658955
-0.0298649 -0.185443 -0.000424689
-0.0423969 -0.104361 0.0725721
-0.056326 -0.0229498 0.139922
-0.0717133 0.0258777 0.188994
-0.0865779 0.0348845 0.204537
-0.0980513 0.0144816 0.191256
-0.10176 -0.0125898 0.156677
-0.0957606 -0.0292175 0.110907
0.227794 0.166225 -0.0179775
0.269042 0.215555 -0.0304526
0.301527 0.24689 -0.0416365
0.318126 0.258199 -0.0514778
0.316661 0.252857 -0.0611652
0.298272 0.234391 -0.0691987
0.265559 0.201947 -0.0786193
0.223497 0.141838 -0.0900771
0.179789 0.0502956 -0.102297
0.139561 -0.0558839 -0.110895
0.106099 -0.151697 -0.107995
0.0792578 -0.205418 -0.0868592
0.0566226 -0.197277 -0.0444062
0.0342822 -0.133809 0.0159396
0.00737712 -0.0391222 0.0848339
-0.025317 0.0472182 0.151499
-0.0609514 0.0896377 0.203988
-0.0945377 0.0820668 0.225014
-0.120699 0.041291 0.217348
-0.133758 -0.00547349 0.186069
-0.131276 -0.0353674 0.138728
0.154626 0.148054 -0.0286062
0.185822 0.191791 -0.0407015
0.214545 0.222124 -0.0479028
0.235612 0.237511 -0.0513092
0.247341 0.240749 -0.0528639
0.248914 0.230711 -0.0527466
0.240544 0.201813 -0.0541621
0.223961 0.140612 -0.0573609
0.20431 0.0461205 -0.0609685
0.184046 -0.0614582 -0.0616527
0.164247 -0.152647 -0.0523949
0.143135 -0.193392 -0.0281841
0.118329 -0.165191 0.012598
0.087187 -0.0794305 0.0663476
0.0467675 0.0332335 0.124684
-0.00161041 0.127276 0.179025
-0.0525838 0.164463 0.219796
-0.0993582 0.140309 0.232229
-0.13509 0.0778839 0.219512
-0.153855 0.00979694 0.186661
-0.153011 -0.0355857 0.139605
0.125061 0.118106 -0.0408013
0.152969 0.148643 -0.0529518
0.181524 0.16968 -0.0561716
0.206643 0.182544 -0.0524318
0.226949 0.190139 -0.0447275
0.240317 0.187174 -0.0356334
0.245648 0.163158 -0.0287565
0.242451 0.10491 -0.0229646
0.234279 0.0134217 -0.0157371
0.222031 -0.0890966 -0.00456666
0.205594 -0.169755 0.0164948
0.182676 -0.192968 0.0495653
0.15133 -0.141595 0.0928692
0.110331 -0.0311306 0.140777
0.0588547 0.101925 0.1848
0.000456194 0.206914 0.218197
-0.058124 0.243216 0.235185
-0.10979 0.207294 0.228071
-0.147314 0.126713 0.202075
-0.165718 0.0385912 0.163358
-0.163276 -0.0235379 0.11745
0.140834 0.0744441 -0.0619417
0.173156 0.0862082 -0.0777668
0.206105 0.0933026 -0.0803631
0.235557 0.100061 -0.0719087
0.260067 0.109794 -0.0561633
0.276834 0.113998 -0.0380988
0.284429 0.0973027 -0.022468
0.281225 0.0464093 -0.0063699
0.270257 -0.0367701 0.0143305
0.252296 -0.129429 0.0411793
0.227313 -0.196411 0.0786919
0.193813 -0.201208 0.125395
0.150828 -0.127626 0.175048
0.098667 0.00623047 0.218931
0.0384866 0.159542 0.24786
-0.0245854 0.277835 0.256684
-0.083549 0.318477 0.244247
-0.132272 0.2777 0.212392
-0.164193 0.18498 0.169478
-0.176237 0.0806296 0.123551
-0.168319 0.00180208 0.0803152
0.189664 0.018536 -0.0947438
0.232542 0.00953736 -0.119361
0.27391 0.0016472 -0.126623
0.308575 0.00182565 -0.118095
0.334523 0.0134792 -0.0974763
0.348708 0.0260545 -0.0714333
0.349944 0.0195922 -0.0467084
0.336234 -0.0199324 -0.0188983
0.31087 -0.0908611 0.0174397
0.275815 -0.171024 0.0623817
0.232351 -0.224075 0.118511
0.180979 -0.212947 0.180679
0.122333 -0.121573 0.238288
0.0583224 0.0312201 0.279722
-0.0082945 0.202249 0.29538
-0.0716037 0.334766 0.281759
-0.125333 0.384507 0.242354
-0.165159 0.346036 0.188252
-0.186068 0.247987 0.130796
-0.187422 0.132285 0.0796527
-0.171194 0.0381323 0.0406336
0.250074 -0.045232 -0.134283
0.306038 -0.0730846 -0.171173
0.357761 -0.0930581 -0.187364
0.398415 -0.0965872 -0.183208
0.424962 -0.0810668 -0.161418
0.43425 -0.0580494 -0.129172
0.425351 -0.0514562 -0.0957366
0.396222 -0.0766729 -0.056032
0.350696 -0.133161 -0.00423306
0.292769 -0.200313 0.0577402
0.225911 -0.241573 0.130125
0.153434 -0.219663 0.204735
0.0780947 -0.117818 0.267994
0.00339652 0.0463224 0.30689
-0.0668824 0.229418 0.312475
-0.126871 0.374328 0.283205
-0.171733 0.435783 0.226416
-0.199329 0.405376 0.159471
-0.206785 0.308481 0.095237
-0.195939 0.186874 0.0437523
-0.170807 0.0802418 0.0102532
0.298709 -0.109911 -0.166777
0.365645 -0.152132 -0.214747
0.426588 -0.178861 -0.24013
0.473093 -0.181618 -0.241709
0.500893 -0.159479 -0.22089
0.50649 -0.124216 -0.184494
0.488733 -0.102866 -0.144045
0.445404 -0.112586 -0.0948824
0.380739 -0.154375 -0.0319836
0.300951 -0.209696 0.0406353
0.212097 -0.242585 0.120915
0.120589 -0.215905 0.199028
0.0316058 -0.111655 0.260863
-0.049848 0.0551729 0.294372
-0.119649 0.243042 0.292677
-0.172888 0.39625 0.25654
-0.206612 0.469303 0.195704
-0.220862 0.450058 0.128946
-0.215238 0.3591 0.0685651
-0.193662 0.23648 0.0233296
-0.161943 0.121131 -0.00339553
0.32024 -0.168032 -0.179223
0.392411 -0.219415 -0.2318
0.458239 -0.247767 -0.261894
0.508389 -0.245893 -0.267436
0.537547 -0.215449 -0.248247
0.541598 -0.167749 -0.209919
0.518732 -0.131839 -0.165564
0.466213 -0.126779 -0.111816
0.388334 -0.155003 -0.0454486
0.293113 -0.200093 0.0276882
0.189041 -0.227331 0.103696
0.085323 -0.200273 0.17281
-0.0105476 -0.0997925 0.223048
-0.0923616 0.0622904 0.245879
-0.156257 0.247523 0.238015
-0.19902 0.403103 0.202875
-0.219795 0.484472 0.151013
-0.220658 0.475836 0.0980239
-0.203741 0.39271 0.0526781
-0.174484 0.272621 0.0199412
-0.139765 0.153216 0.00041537
0.307944 -0.212853 -0.159328
0.377205 -0.26866 -0.20513
0.44101 -0.295838 -0.230787
0.490628 -0.288219 -0.234305
0.520223 -0.249667 -0.215148
0.52466 -0.191565 -0.177188
0.500881 -0.143678 -0.13319
0.445758 -0.126178 -0.0818217
0.363121 -0.142673 -0.0224541
0.261935 -0.17864 0.0380096
0.152641 -0.201247 0.0947829
0.0465784 -0.175578 0.140011
-0.0469045 -0.0820977 0.166369
-0.120896 0.0702068 0.171261
-0.172384 0.246551 0.156112
-0.20053 0.398326 0.127315
-0.206761 0.482769 0.0948983
-0.194817 0.481519 0.0668792
-0.169083 0.406068 0.0451727
-0.135933 0.291177 0.0296326
-0.102465 0.172064 0.0176558
0.265829 -0.239287 -0.105685
0.32442 -0.295673 -0.132488
0.379201 -0.320219 -0.143423
0.423245 -0.307727 -0.13748
0.450855 -0.263346 -0.114975
0.456007 -0.198535 -0.0790672
0.434365 -0.142741 -0.0397926
0.382314 -0.116415 0.00218161
0.303221 -0.123416 0.0444433
0.20585 -0.150984 0.0801147
0.101739 -0.168888 0.104708
0.00341483 -0.144726 0.113743
-0.0786266 -0.0596275 0.106239
-0.137341 0.0794835 0.0868922
-0.170879 0.241794 0.0621621
-0.1812 0.383459 0.0415919
-0.171703 0.464639 0.0333625
-0.14776 0.466222 0.0351469
-0.11568 0.397587 0.040824
-0.0820567 0.289879 0.0445278
-0.0534006 0.175703 0.0401417
0.208199 -0.245313 -0.0341187
0.25097 -0.299481 -0.0365001
0.291543 -0.321569 -0.0281613
0.325627 -0.306823 -0.00901087
0.348658 -0.260573 0.0180859
0.353736 -0.194034 0.050159
0.33574 -0.135122 0.0808183
0.290775 -0.103704 0.108354
0.221632 -0.103226 0.128355
0.135856 -0.122619 0.134668
0.0450807 -0.135031 0.12427
-0.0379787 -0.111601 0.0964083
-0.102512 -0.035244 0.0559965
-0.141835 0.0883751 0.0137636
-0.15528 0.232465 -0.0196266
-0.147295 0.358555 -0.0328789
-0.123009 0.430961 -0.02059
-0.0892146 0.431846 0.00612879
-0.0535453 0.369295 0.0342585
-0.0223896 0.270888 0.0543956
-0.000907803 0.165891 0.0571498
0.145987 -0.232255 0.0355756
0.17113 -0.282569 0.0568373
0.195351 -0.303319 0.0833073
0.217204 -0.289392 0.113362
0.233424 -0.245622 0.143531
0.237547 -0.182528 0.169634
0.224288 -0.125523 0.189429
0.189527 -0.0925932 0.200797
0.134843 -0.0866441 0.19883
0.0657939 -0.0980768 0.178707
-0.00710799 -0.10403 0.139085
-0.0719844 -0.08006 0.0822451
-0.118354 -0.0118831 0.0172416
-0.139878 0.0952459 -0.0412491
-0.136222 0.218311 -0.0800245
-0.113293 0.324644 -0.0876062
-0.0775039 0.383897 -0.0607589
-0.0366444 0.380785 -0.0167076
0.000863686 0.323656 0.0277841
0.0287829 0.236437 0.0590756
0.0433422 0.144403 0.0666073
0.0927168 -0.205154 0.0839807
0.10258 -0.250725 0.121547
0.112177 -0.271159 0.159637
0.121727 -0.260799 0.195417
0.129822 -0.223357 0.224602
0.131231 -0.16811 0.243486
0.121296 -0.117076 0.252836
0.0963764 -0.0855227 0.250609
0.0565594 -0.0758218 0.232262
0.00500883 -0.0798242 0.194965
-0.0494877 -0.0790359 0.138474
-0.096606 -0.053923 0.0667539
-0.126834 0.00644118 -0.00937378
-0.134161 0.0967973 -0.0737576
-0.118472 0.197809 -0.113175
-0.0859837 0.282663 -0.11673
-0.04372 0.327051 -0.0830994
-1.76438e-05 0.319323 -0.0310061
0.0371501 0.268027 0.0205201
0.0618719 0.193479 0.0563112
0.0709253 0.116793 0.0659403
0.0541791 -0.171396 0.101087
0.0540339 -0.211349 0.142919
0.0534891 -0.231245 0.182715
0.0535088 -0.225413 0.216951
0.0541865 -0.196104 0.241144
0.0523485 -0.151232 0.252758
0.0445165 -0.109046 0.253972
0.0279387 -0.0815189 0.243183
0.00140471 -0.0702746 0.217237
-0.0337135 -0.0685802 0.175091
-0.0710893 -0.0622027 0.117049
-0.102518 -0.0363897 0.0473028
-0.1201 0.016444 -0.0240941
-0.118825 0.0911258 -0.0824739
-0.0981945 0.171672 -0.11647
-0.064154 0.236782 -0.11757
-0.0229521 0.267682 -0.0852379
0.0177761 0.256607 -0.0358204
0.0512798 0.212271 0.0125182
0.0723318 0.151096 0.0459857
0.0783191 0.0902913 0.0558763
0.283301 0.192165 0.0274461
0.312258 0.160554 0.0468496
0.325022 0.0821479 0.0670813
0.31807 -0.0227702 0.085264
0.291656 -0.127803 0.0952708
0.249448 -0.212541 0.0984212
0.195876 -0.258327 0.0925612
0.137853 -0.268564 0.0811614
0.0805115 -0.257469 0.0702177
0.0274307 -0.238903 0.0677539
-0.0145877 -0.220636 0.0790728
-0.0402513 -0.201767 0.104151
-0.0482663 -0.17824 0.135184
-0.0397095 -0.150033 0.157576
-0.0149393 -0.120663 0.157585
0.0234022 -0.0996802 0.124876
0.0671798 -0.0946852 0.0601288
0.107678 -0.10221 -0.0177185
0.138415 -0.114605 -0.0859492
0.155884 -0.120095 -0.129917
0.157785 -0.110518 -0.137754
0.393369 0.225294 0.0262324
0.441595 0.201087 0.0479492
0.465743 0.123497 0.0712097
0.458924 0.0146284 0.0915604
0.420464 -0.0969324 0.101601
0.356957 -0.187263 0.102844
0.275937 -0.236301 0.0919597
0.188456 -0.250331 0.0738105
0.102881 -0.246508 0.0561586
0.0255794 -0.23849 0.049465
-0.0348446 -0.233389 0.061178
-0.0714312 -0.227108 0.0920879
-0.0836133 -0.211958 0.133291
-0.0730715 -0.186276 0.167726
-0.0409473 -0.153293 0.177743
0.00792319 -0.124772 0.149969
0.0633997 -0.112184 0.0834969
0.114143 -0.113342 -0.000216028
0.152225 -0.121601 -0.0776249
0.173568 -0.12352 -0.131147
0.176105 -0.110823 -0.145477
0.47993 0.250089 0.0175334
0.54484 0.240699 0.0364295
0.579687 0.175481 0.0570996
0.574148 0.0748277 0.0749227
0.526967 -0.0326483 0.0824452
0.44642 -0.121555 0.0810374
0.342663 -0.172089 0.0666145
0.230814 -0.192856 0.044182
0.122648 -0.202635 0.0221071
0.0259288 -0.213212 0.0116688
-0.0488638 -0.228948 0.0217733
-0.0942457 -0.241173 0.0545046
-0.110274 -0.237987 0.101705
-0.100319 -0.21592 0.14644
-0.0661742 -0.17915 0.169564
-0.013738 -0.142079 0.155521
0.045006 -0.120781 0.101389
0.0981102 -0.114802 0.0265163
0.137871 -0.119078 -0.0477069
0.160419 -0.118684 -0.103952
0.164218 -0.104979 -0.124854
0.522642 0.266676 0.00293092
0.597359 0.276767 0.0141182
0.639257 0.2325 0.0265365
0.636116 0.150466 0.0368506
0.586017 0.0562249 0.0388503
0.498228 -0.0253783 0.033744
0.384419 -0.0753703 0.0172551
0.261283 -0.105302 -0.0064981
0.142489 -0.133695 -0.0301016
0.0372139 -0.16846 -0.0430734
-0.0437537 -0.20939 -0.0358412
-0.0933845 -0.242371 -0.00457302
-0.112495 -0.251475 0.0450667
-0.105479 -0.232387 0.0983232
-0.0762382 -0.190959 0.137204
-0.0305653 -0.145716 0.145108
0.020665 -0.117782 0.116094
0.0662665 -0.107897 0.0619564
0.100116 -0.111639 0.00157044
0.119429 -0.111539 -0.0501901
0.124076 -0.0986768 -0.0767829
0.510084 0.276176 -0.0124892
0.585319 0.306685 -0.0119068
0.629817 0.287957 -0.0112213
0.630597 0.230713 -0.0117735
0.585781 0.155859 -0.0178236
0.503788 0.0853277 -0.0270104
0.395964 0.036463 -0.0434386
0.278217 -0.00437017 -0.0647663
0.164598 -0.0544313 -0.0860882
0.0644226 -0.115811 -0.0992191
-0.0124066 -0.182255 -0.0949944
-0.0601837 -0.233843 -0.0678407
-0.0805376 -0.251466 -0.0196749
-0.0785166 -0.23163 0.0387776
-0.0597659 -0.183021 0.0925293
-0.0299168 -0.1303 0.126155
0.00265126 -0.099265 0.130181
0.0305718 -0.0914986 0.105224
0.0499838 -0.100225 0.0654799
0.0607997 -0.10537 0.0232284
0.0642267 -0.096233 -0.00796088
0.442941 0.279347 -0.0225421
0.510677 0.32805 -0.0315561
0.553676 0.33401 -0.0420367
0.56 0.302144 -0.0535216
0.527778 0.248213 -0.0676751
0.464018 0.189779 -0.0808007
0.377954 0.141761 -0.0960886
0.282499 0.0892171 -0.113109
0.189712 0.017359 -0.129906