# vtk DataFile Version 2.0
Func
ASCII
DATASET RECTILINEAR_GRID
DIMENSIONS 21 21 21
X_COORDINATES 21 double
-0.47619
-0.428571
-0.380952
-0.333333
-0.285714
-0.238095
-0.190476
-0.142857
-0.0952381
-0.047619
0
0.047619
0.0952381
0.142857
0.190476
0.238095
0.285714
0.333333
0.380952
0.428571
0.47619
Y_COORDINATES 21 double
-0.47619
-0.428571
-0.380952
-0.333333
-0.285714
-0.238095
-0.190476
-0.142857
-0.0952381
-0.047619
0
0.047619
0.0952381
0.142857
0.190476
0.238095
0.285714
0.333333
0.380952
0.428571
0.47619
Z_COORDINATES 21 double
-0.47619
-0.428571
-0.380952
-0.333333
-0.285714
-0.238095
-0.190476
-0.142857
-0.0952381
-0.047619
0
0.047619
0.0952381
0.142857
0.190476
0.238095
0.285714
0.333333
0.380952
0.428571
0.47619
POINT_DATA 9261
SCALARS data double 3
LOOKUP_TABLE default
0.0245262 0.0260311 -0.0479331
0.00977697 -0.0320065 -0.0504987
-0.00738834 -0.0879232 -0.0496137
-0.020782 -0.125636 -0.0404355
-0.0464643 -0.117805 -0.0443105
-0.0648834 -0.12024 -0.0395799
-0.0815659 -0.126463 -0.034611
-0.0903614 -0.14017 -0.0143656
-0.114768 -0.147634 -0.0238582
-0.131608 -0.16498 0.00900282
-0.146337 -0.175985 0.053897
-0.157656 -0.123046 0.0410098
-0.167116 -0.0714906 0.0211352
-0.184346 -0.0538346 -0.00284928
-0.188219 -0.00143837 -0.00330005
-0.197873 0.0327191 0.00101749
-0.203576 0.0582418 0.0151675
-0.199394 0.0600141 0.0446767
-0.195633 0.0811746 0.0326969
-0.181526 0.0877976 0.00225327
-0.161698 0.0900445 -0.0319538
0.0252221 0.0511261 -0.0598571
0.0105699 -0.011814 -0.0631112
-0.00794605 -0.0756757 -0.0623661
-0.0243338 -0.117617 -0.0496267
-0.0516921 -0.116244 -0.0547347
-0.0719397 -0.123226 -0.0486366
-0.0890481 -0.133829 -0.0422547
-0.0982531 -0.150299 -0.0185143
-0.119561 -0.158897 -0.0339012
-0.134725 -0.176563 -0.00200924
-0.148121 -0.185745 0.0422874
-0.158805 -0.124059 0.0349279
-0.168545 -0.0643221 0.0220621
-0.18623 -0.0426713 0.00929891
-0.191993 0.013352 0.0109648
-0.201717 0.0481779 0.0187302
-0.20618 0.0715835 0.0324829
-0.200762 0.0665541 0.0534252
-0.194243 0.0843663 0.0361386
-0.178147 0.0858082 -0.00708513
-0.157013 0.0832351 -0.0522935
0.0213429 0.0835232 -0.0789215
0.00818091 0.0179125 -0.0814836
-0.0102491 -0.0529518 -0.0775075
-0.0284916 -0.0993557 -0.0576269
-0.0552841 -0.107486 -0.0589985
-0.0756753 -0.1219 -0.048353
-0.091677 -0.139215 -0.039696
-0.0998599 -0.159293 -0.0121737
-0.116916 -0.169617 -0.0359144
-0.129409 -0.186318 -0.00803534
-0.140753 -0.191649 0.0325814
-0.149468 -0.120089 0.0302518
-0.15835 -0.0514421 0.0244267
-0.174388 -0.0251525 0.023011
-0.181283 0.0335053 0.025972
-0.18994 0.0674827 0.0362594
-0.19189 0.0862125 0.0480053
-0.185002 0.0714691 0.059765
-0.175377 0.0835024 0.035407
-0.158229 0.0775869 -0.0187779
-0.138184 0.0693873 -0.0724493
0.00767011 0.10579 -0.100175
-0.00303395 0.0409832 -0.0982844
-0.0194882 -0.0324945 -0.0849377
-0.0368076 -0.0817671 -0.0546545
-0.0627115 -0.0967216 -0.0445644
-0.0830821 -0.117701 -0.0254025
-0.0987492 -0.141286 -0.0119031
-0.105924 -0.165856 0.0178161
-0.122541 -0.178164 -0.00699185
-0.1341 -0.194728 0.0161801
-0.144522 -0.197101 0.0513166
-0.150894 -0.11821 0.0500301
-0.15834 -0.0426438 0.0481228
-0.170889 -0.0122512 0.0528737
-0.179574 0.0478698 0.0566437
-0.186468 0.0799023 0.066264
-0.185358 0.0941402 0.073165
-0.175413 0.0722675 0.0765238
-0.163413 0.0799363 0.0463296
-0.145431 0.0695788 -0.0117367
-0.126833 0.0592176 -0.0681387
0.00282384 0.157572 -0.101188
-0.00147597 0.0927679 -0.097556
-0.0119712 0.0110238 -0.0769528
-0.0261023 -0.0449978 -0.0370678
-0.0471662 -0.078897 -0.0119723
-0.0652385 -0.114432 0.0145861
-0.0790839 -0.149369 0.0287976
-0.0850332 -0.176717 0.056663
-0.0993199 -0.189592 0.0129157
-0.108521 -0.199019 0.0269164
-0.116421 -0.190881 0.0581558
-0.117309 -0.0984261 0.0583086
-0.120247 -0.0131523 0.0606624
-0.126177 0.0201809 0.0737725
-0.135291 0.0789211 0.0826223
-0.139831 0.106412 0.0951436
-0.136803 0.112788 0.101374
-0.128252 0.0766944 0.0964296
-0.115849 0.0749887 0.0631517
-0.102168 0.0516843 -0.00502218
-0.0900421 0.0309251 -0.0681445
-0.00620001 0.191612 -0.0975667
-0.00432612 0.129525 -0.0888564
-0.00850508 0.0444727 -0.0589519
-0.0180837 -0.0160517 -0.0116851
-0.0343874 -0.0628304 0.0279491
-0.0502832 -0.109293 0.0599006
-0.063336 -0.152772 0.0732736
-0.0682827 -0.182541 0.0950141
-0.0841614 -0.195525 0.0393936
-0.0932874 -0.200144 0.0460248
-0.100631 -0.185347 0.0746786
-0.0968277 -0.0849699 0.0754704
-0.0957396 0.00506492 0.0819186
-0.09504 0.0388936 0.0994502
-0.104604 0.0944987 0.114712
-0.107165 0.117962 0.129682
-0.103009 0.118895 0.135252
-0.0963345 0.0744534 0.125514
-0.0848602 0.0670134 0.091137
-0.0758493 0.0366991 0.0191405
-0.0696553 0.0110042 -0.0465752
-0.0155924 0.220338 -0.0859292
-0.00757027 0.161622 -0.0713417
-0.00485239 0.074317 -0.0337654
-0.00884467 0.0102439 0.0169061
-0.0187529 -0.0472971 0.064541
-0.0314175 -0.10284 0.0972091
-0.0438253 -0.153004 0.104587
-0.0479779 -0.183476 0.116668
-0.0665238 -0.195345 0.0473471
-0.0760508 -0.195181 0.0471837
-0.0829253 -0.175265 0.0760457
-0.0737033 -0.0705941 0.0794042
-0.0674172 0.0200699 0.0918927
-0.0595622 0.0509883 0.115214
-0.0689815 0.101461 0.139705
-0.0701129 0.120365 0.159894
-0.0662359 0.117146 0.167792
-0.063621 0.0678488 0.157429
-0.0548068 0.0563478 0.123642
-0.0523238 0.0219586 0.0498785
-0.0529953 -0.00675671 -0.0185502
-0.0225461 0.242947 -0.0831213
-0.0105495 0.186397 -0.0630156
-0.00212884 0.097033 -0.0201018
-0.00110308 0.029477 0.0318456
-0.00240443 -0.0380187 0.0818118
-0.00922395 -0.100986 0.110881
-0.0181594 -0.155537 0.111687
-0.0213024 -0.185758 0.114452
-0.0388394 -0.193371 0.0383298
-0.0478551 -0.187691 0.0318769
-0.0537164 -0.163094 0.0584966
-0.0400019 -0.0564594 0.0631663
-0.0293088 0.033256 0.0811407
-0.0167361 0.0617505 0.111745
-0.0255309 0.107157 0.145533
-0.0273343 0.122435 0.172659
-0.0261091 0.11581 0.185793
-0.0293021 0.0630112 0.181467
-0.0244108 0.0491866 0.149409
-0.0277467 0.0128219 0.0795396
-0.0336214 -0.0166736 0.0130198
-0.0628768 0.239591 -0.0747733
-0.0501352 0.186732 -0.0545502
-0.0396812 0.0985165 -0.0139149
-0.0350693 0.0315188 0.0342261
-0.0344231 -0.035329 0.0695545
-0.0400526 -0.097666 0.0833577
-0.0499352 -0.14983 0.0653196
-0.0513559 -0.174838 0.0583161
-0.0769421 -0.178366 -0.0387631
-0.0890213 -0.170165 -0.0453818
-0.0965053 -0.148007 -0.00733787
-0.0749774 -0.0512054 0.00980156
-0.0560042 0.0237341 0.0414266
-0.0313694 0.0357538 0.084398
-0.0379293 0.068577 0.131171
-0.03629 0.0793589 0.16909
-0.0344874 0.0747861 0.190769
-0.0396645 0.0311797 0.195043
-0.0374809 0.0204305 0.164212
-0.0446953 -0.0106242 0.0918753
-0.0542059 -0.0362367 0.0201429
-0.0869564 0.228097 -0.0724522
-0.0740986 0.176462 -0.0539485
-0.0607558 0.0890658 -0.0178695
-0.051636 0.022986 0.0248273
-0.0436255 -0.0412403 0.0459907
-0.0434149 -0.0999119 0.0476887
-0.0497103 -0.146218 0.0173568
-0.0485355 -0.164418 0.0044327
-0.076609 -0.160988 -0.0998589
-0.0903002 -0.149285 -0.1022
-0.0989302 -0.129099 -0.0534177
-0.0724209 -0.0426052 -0.0283864
-0.0481361 0.0180232 0.0109763
-0.0171973 0.0152946 0.0590513
-0.022099 0.0366434 0.114741
-0.0203514 0.042655 0.161298
-0.0209231 0.0391312 0.191523
-0.0304612 0.00326737 0.207633
-0.0319641 -0.00413126 0.178766
-0.0430431 -0.0291145 0.108055
-0.0555515 -0.0495407 0.034221
-0.101061 0.203821 -0.07347
-0.0882725 0.152674 -0.0603261
-0.0720176 0.0673244 -0.0325615
-0.0580164 0.00429411 0.00309971
-0.0409785 -0.0519064 0.00928152
-0.0334893 -0.102169 0.00116301
-0.0351318 -0.138325 -0.0361161
-0.0316771 -0.147528 -0.049672
-0.0620726 -0.135975 -0.153174
-0.078308 -0.121643 -0.146182
-0.0895726 -0.10559 -0.0843186
-0.0609116 -0.0329808 -0.0532812
-0.0340874 0.0100167 -0.010352
-0.000753082 -0.0102432 0.0371154
-0.00492329 -0.00153741 0.0985217
-0.00503853 -0.000927972 0.150351
-0.00930253 -0.00335642 0.187961
-0.0236667 -0.0298294 0.215954
-0.028256 -0.0327491 0.189077
-0.042069 -0.0493618 0.120302
-0.0561769 -0.0623916 0.0451817
-0.0332956 0.203105 -0.0636241
-0.0152568 0.152099 -0.0539945
0.00809221 0.0672858 -0.0325859
0.0283433 0.00774383 -0.00650382
0.0585732 -0.0493475 -0.0082681
0.0751742 -0.0942197 -0.0200035
0.0795313 -0.121347 -0.0544782
0.0826982 -0.119215 -0.0649569
0.0507647 -0.0966816 -0.148424
0.0290888 -0.0734879 -0.129473
0.0109396 -0.0538039 -0.059485
0.0303783 0.00998745 -0.0299817
0.0479679 0.0398833 0.0088678
0.065508 0.00617102 0.0485081
0.0578181 0.00108793 0.111694
0.0466522 -0.00922889 0.164069
0.0309783 -0.0195298 0.205354
0.000462293 -0.050462 0.240931
-0.0070064 -0.0572639 0.218967
-0.0268591 -0.0749244 0.156285
-0.0447101 -0.0876277 0.0835202
0.0215859 0.199025 -0.064322
0.0419412 0.149416 -0.0608099
0.0692261 0.0672478 -0.0474909
0.0935959 0.0128807 -0.0285729
0.131677 -0.0418762 -0.0384691
0.153856 -0.07951 -0.0507177
0.161033 -0.0968719 -0.0777884
0.162597 -0.0840064 -0.0801682
0.126293 -0.0523114 -0.141631
0.0976345 -0.0224997 -0.110295
0.0709609 -0.0015285 -0.0341959
0.0798477 0.0511274 -0.00722053
0.0869804 0.0664786 0.0253742
0.0884185 0.0187377 0.056084
0.0766913 -4.1088e-05 0.116188
0.0557861 -0.020625 0.165945
0.0310653 -0.03791 0.20814
-0.0108058 -0.0717825 0.249611
-0.0188879 -0.0819483 0.229834
-0.0404861 -0.0998701 0.172032
-0.0575258 -0.11159 0.102213
0.0486568 0.195013 -0.082826
0.067052 0.150703 -0.087586
0.0933907 0.0749636 -0.0847229
0.118437 0.0291464 -0.0701317
0.156691 -0.0242558 -0.0900396
0.179613 -0.0547798 -0.101634
0.186306 -0.0631326 -0.119355
0.185452 -0.0396574 -0.110721
0.144408 -0.000532332 -0.149967
0.109647 0.0356338 -0.111498
0.075543 0.057939 -0.0389161
0.0753813 0.096322 -0.0114448
0.0736852 0.0951834 0.0184378
0.0631245 0.0343809 0.0476572
0.0482849 0.000251453 0.100663
0.021787 -0.0312005 0.148044
-0.00712937 -0.056154 0.189685
-0.0534408 -0.0928294 0.233371
-0.0597934 -0.108133 0.212308
-0.0786613 -0.127911 0.158564
-0.0907417 -0.140611 0.0925139
0.0680881 0.173438 -0.0773079
0.0832116 0.129312 -0.0886642
0.107704 0.0582201 -0.0940524
0.132025 0.0177728 -0.0847542
0.17021 -0.0242658 -0.109313
0.19309 -0.0444963 -0.119041
0.199135 -0.0440847 -0.130214
0.197658 -0.0151635 -0.110604
0.152585 0.0266512 -0.13728
0.113714 0.061874 -0.0884301
0.0742029 0.0793279 -0.00937514
0.066882 0.106527 0.0172974
0.0577255 0.093433 0.0419862
0.0362122 0.0223601 0.0632748
0.0184623 -0.0182889 0.107986
-0.0142199 -0.0532705 0.149225
-0.0482664 -0.078406 0.186662
-0.0978522 -0.110581 0.228315
-0.103743 -0.123864 0.202442
-0.119105 -0.139162 0.145809
-0.125404 -0.147203 0.0793397
0.0703824 0.147511 -0.068345
0.0808365 0.107593 -0.0851023
0.100918 0.0447131 -0.0988104
0.122089 0.0127294 -0.0943674
0.155694 -0.0187419 -0.126696
0.176266 -0.0292581 -0.137747
0.18157 -0.0210231 -0.144065
0.1812 0.0120087 -0.115837
0.137562 0.0540145 -0.1324
0.0998214 0.0871305 -0.0794857
0.0599395 0.0997328 -0.00191802
0.0490872 0.113505 0.0275626
0.0353599 0.0878437 0.0535901
0.00719087 0.00930291 0.0779037
-0.0137059 -0.037909 0.114918
-0.0505159 -0.0754065 0.150902
-0.0879036 -0.0999962 0.181293
-0.138431 -0.126126 0.212961
-0.145022 -0.137975 0.182395
-0.156978 -0.149845 0.121543
-0.15781 -0.155079 0.0540883
0.0768018 0.114796 -0.0397687
0.0843043 0.0800093 -0.0590793
0.100448 0.0269901 -0.078972
0.117735 0.00395189 -0.0809589
0.147174 -0.0154482 -0.11903
0.165686 -0.0165752 -0.132364
0.171789 -0.00206192 -0.137142
0.174462 0.0328128 -0.105502
0.137097 0.0723448 -0.117186
0.104773 0.101104 -0.0633226
0.0685316 0.107718 0.011836
0.0566085 0.108717 0.0461962
0.0397212 0.0725331 0.0763207
0.00613367 -0.0102467 0.106663
-0.0188958 -0.0612116 0.13873
-0.0606206 -0.0984292 0.168537
-0.102124 -0.119802 0.190633
-0.15447 -0.137422 0.207664
-0.163523 -0.146743 0.172266
-0.174576 -0.154635 0.104536
-0.172883 -0.157011 0.0343498
0.0973353 0.0630433 0.0184665
0.107982 0.0391823 -0.00114688
0.124922 0.00259922 -0.0256874
0.139894 -0.00845293 -0.0376162
0.170541 -0.0107837 -0.0757674
0.18983 -0.00137824 -0.0917945
0.199991 0.0187965 -0.0980868
0.207984 0.0527605 -0.0698937
0.183449 0.0857536 -0.0791482
0.161268 0.105824 -0.0307043
0.133065 0.102637 0.036465
0.122656 0.0853855 0.08053
0.104355 0.0359037 0.122433
0.0676534 -0.0491584 0.16531
0.0379727 -0.10309 0.196677
-0.00852173 -0.13614 0.221256
-0.0550811 -0.149124 0.231342
-0.113337 -0.150571 0.218799
-0.127083 -0.153354 0.183045
-0.142996 -0.15252 0.108763
-0.145978 -0.149437 0.0363551
0.115791 0.0472363 0.0431135
0.126 0.0250017 0.0237451
0.140233 -0.00647192 -0.00310917
0.151596 -0.0126268 -0.017394
0.177735 -0.00815749 -0.0562967
0.194176 0.00511082 -0.0735295
0.20388 0.0261609 -0.0808937
0.213978 0.0572402 -0.053591
0.195394 0.0859938 -0.0662382
0.178977 0.102211 -0.0184274
0.155684 0.096537 0.0495417
0.145147 0.0767434 0.0930002
0.124933 0.0272989 0.133458
0.0842194 -0.0553508 0.17353
0.0522824 -0.105853 0.199753
0.00237075 -0.136624 0.219696
-0.0473222 -0.147486 0.224076
-0.106799 -0.145586 0.203967
-0.123564 -0.148416 0.164924
-0.13969 -0.147634 0.0867721
-0.142271 -0.144681 0.0135887
0.133692 0.0187839 0.0654194
0.146695 0.00299819 0.0463775
0.160921 -0.0183816 0.0197086
0.169233 -0.0176971 0.00325435
0.192254 -0.00457503 -0.0324986
0.205818 0.0124108 -0.0501731
0.21526 0.03339 -0.059184
0.226918 0.060796 -0.035731
0.214957 0.0830149 -0.0523579
0.205037 0.0936451 -0.0104506
0.187769 0.0839061 0.0518344
0.17849 0.0581691 0.0976035
0.158377 0.00729034 0.140345
0.117591 -0.0707524 0.18171
0.0849816 -0.11772 0.205917
0.0351656 -0.143643 0.220222
-0.0143724 -0.149342 0.217064
-0.0738951 -0.139581 0.185569
-0.0922143 -0.139418 0.146617
-0.110844 -0.135563 0.0698292
-0.116834 -0.131476 0.00163391
0.134666 -0.00353177 0.0689659
0.148745 -0.0131984 0.050059
0.162038 -0.025996 0.0254298
0.167334 -0.020565 0.00971171
0.186019 -0.00161942 -0.0208196
0.195815 0.0171873 -0.0370549
0.203289 0.0370894 -0.0471747
0.215164 0.0606725 -0.027348
0.20669 0.0766415 -0.0486398
0.200973 0.0826937 -0.01388
0.188338 0.0705695 0.0411692
0.180688 0.0421018 0.0861678
0.162787 -0.00731647 0.127658
0.126396 -0.078782 0.166437
0.0970243 -0.121145 0.187939
0.0529187 -0.14258 0.197538
0.0088354 -0.144343 0.190014
-0.0456521 -0.129194 0.155002
-0.0627421 -0.126805 0.119507
-0.0823247 -0.120504 0.0502217
-0.0913607 -0.115873 -0.0088194
0.0759281 0.0238203 -0.0356385
0.0705368 -0.0388288 -0.0412656
0.0607202 -0.0977819 -0.0424232
0.0486794 -0.139474 -0.0332894
0.0322 -0.130596 -0.0359421
0.0183693 -0.135655 -0.0286276
0.00648988 -0.145101 -0.0206561
-0.000524845 -0.158526 0.00123826
-0.0183636 -0.169881 -0.00551911
-0.0318374 -0.183443 0.0308123
-0.0444105 -0.186396 0.0790903
-0.0559663 -0.127445 0.0644668
-0.0660952 -0.0710771 0.0400242
-0.0861415 -0.0540158 0.00734715
-0.0919092 -0.000761039 0.00316463
-0.105467 0.0315497 0.00236587
-0.116457 0.0560788 0.0133221
-0.124403 0.0559568 0.0396093
-0.123389 0.0821995 0.0264977
-0.118112 0.0941006 -0.00859242
-0.107561 0.100517 -0.04509
0.0803802 0.0488061 -0.0522363
0.0752443 -0.0200773 -0.060251
0.0636385 -0.0883309 -0.0625712
0.0480439 -0.134822 -0.0493383
0.0293608 -0.133341 -0.0533741
0.0136477 -0.143271 -0.0438802
0.00177553 -0.157131 -0.0337168
-0.00452907 -0.17235 -0.00780934
-0.0182796 -0.184134 -0.0208018
-0.0291628 -0.196485 0.0144669
-0.0399139 -0.19566 0.0620032
-0.050617 -0.126552 0.0531397
-0.0612352 -0.0613991 0.0359561
-0.0822868 -0.0416067 0.0150038
-0.0907733 0.0146253 0.012903
-0.105048 0.0460603 0.0153758
-0.115348 0.0672223 0.0253913
-0.123238 0.059617 0.0417901
-0.119206 0.0822427 0.0223933
-0.112345 0.0894748 -0.0268732
-0.101069 0.0916023 -0.0747796
0.0722409 0.0823711 -0.078482
0.0672997 0.00980659 -0.0873302
0.0541256 -0.0667549 -0.0868984
0.0358512 -0.118403 -0.0655989
0.0161275 -0.127996 -0.0651218
-9.69567e-05 -0.146184 -0.0498607
-0.01044 -0.167151 -0.0366373
-0.0141601 -0.185022 -0.00682841
-0.0230211 -0.197468 -0.0293606
-0.0304311 -0.206853 0.000941856
-0.0388581 -0.199748 0.0442352
-0.0472677 -0.118938 0.0407709
-0.057186 -0.044018 0.0315102
-0.0766243 -0.0206934 0.0233862
-0.0869572 0.0373653 0.0231052
-0.100279 0.0661284 0.0282475
-0.107678 0.0808536 0.0357425
-0.113498 0.062187 0.0417424
-0.105469 0.0781321 0.0139831
-0.0966237 0.0778581 -0.0472339
-0.0859171 0.0746207 -0.10356
0.0488558 0.107307 -0.10822
0.0447983 0.0353493 -0.113082
0.0322471 -0.0445754 -0.102538
0.0143088 -0.0999493 -0.0694153
-0.00511176 -0.117509 -0.0560839
-0.0210057 -0.143178 -0.0311672
-0.0300316 -0.170976 -0.0126729
-0.0310414 -0.192946 0.019158
-0.0381108 -0.206352 -0.00556408
-0.0435257 -0.214257 0.0191383
-0.0504814 -0.202567 0.0564696
-0.0565278 -0.112781 0.0540392
-0.0654984 -0.0300792 0.0494625
-0.0815805 -0.00291047 0.0491748
-0.094485 0.0557928 0.0505431
-0.105725 0.0811063 0.055473
-0.109221 0.0897921 0.0578069
-0.109983 0.0623183 0.0549534
-0.0985508 0.0732354 0.0202642
-0.0872718 0.0681175 -0.0449978
-0.0768684 0.0627595 -0.103939
0.0293954 0.163447 -0.114959
0.0292823 0.0909696 -0.118407
0.0207311 0.00135311 -0.0995798
0.00614504 -0.0621544 -0.055416
-0.0107329 -0.10245 -0.023484
-0.0247426 -0.145263 0.0109685
-0.0318152 -0.185888 0.031148
-0.0300997 -0.209705 0.0603043
-0.0360465 -0.222437 0.0145059
-0.039385 -0.219985 0.0282458
-0.0445102 -0.193717 0.0606253
-0.0448074 -0.0870758 0.0595694
-0.0494822 0.00718368 0.0599111
-0.0586021 0.0364012 0.06955
-0.072555 0.0931447 0.0769326
-0.0810863 0.111666 0.0855044
-0.0818895 0.110082 0.0873286
-0.0822029 0.0663154 0.0758939
-0.0693769 0.0655853 0.0379734
-0.0605893 0.046396 -0.0379065
-0.0548627 0.0301444 -0.103593
0.0081298 0.202633 -0.114685
0.012736 0.133185 -0.112291
0.0099359 0.0395332 -0.0826121
0.000704991 -0.0297312 -0.0301306
-0.0115665 -0.0859773 0.0189153
-0.0226011 -0.142232 0.059609
-0.0278746 -0.193141 0.0785807
-0.0237975 -0.219304 0.100191
-0.0316149 -0.231688 0.0402575
-0.0351113 -0.222572 0.0451239
-0.0403646 -0.187134 0.0744114
-0.0366634 -0.0699928 0.0742012
-0.0384002 0.0307113 0.0797715
-0.0416224 0.0606188 0.0956924
-0.0569847 0.113866 0.110943
-0.0635728 0.127085 0.123257
-0.0626681 0.118456 0.125111
-0.0628657 0.0647386 0.10939
-0.0502329 0.0565944 0.0703391
-0.0444861 0.0293075 -0.00949878
-0.0430613 0.00755306 -0.0781229
-0.00925494 0.237165 -0.103159
0.0010184 0.171665 -0.0934872
0.00581982 0.075188 -0.0546979
0.00389033 0.00126507 0.00122164
-0.000686639 -0.0688912 0.059775
-0.00699267 -0.136993 0.100743
-0.0105423 -0.196851 0.11216
-0.0048384 -0.22431 0.121969
-0.0158063 -0.235802 0.0456299
-0.020388 -0.220668 0.0422446
-0.0262913 -0.178245 0.0717678
-0.018617 -0.0544763 0.0749655
-0.0167835 0.0485103 0.0883423
-0.0144051 0.0761597 0.112503
-0.0307247 0.124412 0.139062
-0.0363351 0.132417 0.158475
-0.0355089 0.118681 0.164069
-0.0383465 0.0590356 0.148816
-0.0280728 0.0453357 0.110606
-0.027941 0.0128741 0.0288133
-0.0322941 -0.0125785 -0.0432825
-0.0228555 0.266857 -0.100573
-0.00804589 0.204196 -0.0847472
0.00408136 0.105434 -0.0405358
0.00923702 0.0271171 0.0159245
0.0157604 -0.0554851 0.0755456
0.0173088 -0.133441 0.111016
0.0185212 -0.199895 0.113697
0.0255819 -0.228349 0.112486
0.0154905 -0.235884 0.0281956
0.0106628 -0.214644 0.0183575
0.0046228 -0.166483 0.0465538
0.0154912 -0.0396175 0.0527752
0.0203982 0.0634314 0.0740071
0.0265025 0.0893825 0.108074
0.00959078 0.132974 0.145994
0.00289015 0.137228 0.17416
0.00118717 0.119415 0.186278
-0.00659071 0.055277 0.178276
-0.000270607 0.0380988 0.141995
-0.00552381 0.0026152 0.0643054
-0.0145575 -0.0242878 -0.00627392
-0.0610377 0.262971 -0.088033
-0.0455494 0.204842 -0.0702449
-0.0305114 0.107433 -0.0275254
-0.0202571 0.0296268 0.0235938
-0.0102934 -0.0554318 0.0676282
-0.00645049 -0.135433 0.084612
-0.00590098 -0.202176 0.0644754
0.00224296 -0.226473 0.050633
-0.0178516 -0.232173 -0.0584919
-0.0279125 -0.209173 -0.0692679
-0.0377932 -0.163879 -0.0282843
-0.0218573 -0.04571 -0.00751737
-0.0110888 0.0436841 0.0300241
0.00401072 0.05467 0.0796205
-0.0110292 0.0861763 0.133393
-0.0153586 0.0870751 0.175833
-0.016926 0.0725114 0.199798
-0.0261395 0.0194346 0.203252
-0.0222923 0.0048046 0.16967
-0.0303844 -0.0251632 0.0890982
-0.0417497 -0.0482286 0.0113708
-0.0853126 0.250524 -0.0827625
-0.0696701 0.194194 -0.0663945
-0.0509674 0.09788 -0.0291359
-0.0350306 0.0210887 0.0145512
-0.0166457 -0.0630487 0.0415788
-0.00633574 -0.141022 0.0431707
-0.00245457 -0.203628 0.007592
0.00730243 -0.222083 -0.0138646
-0.0174328 -0.222585 -0.131657
-0.0311924 -0.197057 -0.137262
-0.0440877 -0.154548 -0.0832342
-0.0249444 -0.0464981 -0.0520218
-0.0101558 0.0289938 -0.00407158
0.0099169 0.0262651 0.0529634
-0.00334931 0.0470435 0.117988
-0.0077028 0.0445625 0.171522
-0.0116728 0.0325405 0.20617
-0.0245436 -0.0109742 0.223443
-0.0241844 -0.0221706 0.192712
-0.0353743 -0.0457477 0.113757
-0.0487944 -0.0637507 0.0327254
-0.0991938 0.221679 -0.0804048
-0.0837614 0.16622 -0.0698168
-0.0618759 0.0724212 -0.0424021
-0.040511 -0.000677817 -0.00786627
-0.0130683 -0.0774897 0.000930286
0.00411012 -0.147742 -0.0102522
0.0113418 -0.201056 -0.054971
0.021608 -0.2111 -0.0777353
-0.00837264 -0.205221 -0.194738
-0.0270743 -0.178387 -0.189283
-0.0444396 -0.141477 -0.119518
-0.0243802 -0.0478355 -0.0801284
-0.00754966 0.0098075 -0.0267413
0.014605 -0.00973639 0.030677
0.00296097 -0.000977489 0.103073
-0.00289385 -0.00717075 0.163403
-0.010192 -0.0162035 0.206997
-0.0270451 -0.047888 0.23764
-0.0295337 -0.0541371 0.209653
-0.0426613 -0.0685776 0.132549
-0.0567052 -0.0789937 0.0492977
-0.0327192 0.220092 -0.064785
-0.0117744 0.164562 -0.0582319
0.0174236 0.0712134 -0.0386684
0.0451748 0.0018815 -0.0162142
0.0850996 -0.0756883 -0.0175736
0.110199 -0.140353 -0.034103
0.121462 -0.184529 -0.076471
0.128992 -0.183193 -0.0959232
0.0944914 -0.166788 -0.189987
0.0680613 -0.131611 -0.170451
0.0423767 -0.0919209 -0.0908211
0.0531742 -0.00789162 -0.0517788
0.0615752 0.0359945 -0.00184464
0.0696428 0.00233453 0.0473006
0.0554456 -0.00165861 0.122291
0.0396773 -0.0177483 0.183385
0.0216768 -0.033479 0.230999
-0.0106365 -0.0685051 0.269101
-0.015917 -0.0785754 0.247039
-0.0346092 -0.0944354 0.176533
-0.0517034 -0.105391 0.0955579
0.0236485 0.213239 -0.0610029
0.0470732 0.158781 -0.061747
0.08007 0.0680257 -0.0521337
0.111392 0.00448862 -0.038876
0.157763 -0.0698504 -0.0505676
0.18649 -0.12621 -0.068616
0.197842 -0.15966 -0.10305
0.200945 -0.147215 -0.113191
0.159102 -0.121779 -0.181982
0.123682 -0.0806201 -0.14797
0.0885246 -0.0409677 -0.0610067
0.0893289 0.0304413 -0.0239634
0.0886668 0.058455 0.0195057
0.0827337 0.00962072 0.0584923
0.0659643 -0.00745077 0.130378
0.0416211 -0.0328491 0.188226
0.0151538 -0.054292 0.236406
-0.0283474 -0.0907447 0.279766
-0.0341956 -0.103934 0.260444
-0.0544503 -0.120178 0.195092
-0.0702427 -0.130693 0.117353
0.0572342 0.205204 -0.0784494
0.0787306 0.155564 -0.0894278
0.110234 0.0712207 -0.0925779
0.141113 0.0173509 -0.0847232
0.185496 -0.0540643 -0.108995
0.212428 -0.101103 -0.126861
0.220212 -0.123508 -0.150912
0.218011 -0.0996377 -0.147886
0.168536 -0.0659134 -0.191684
0.125371 -0.0192107 -0.149244
0.0823509 0.0196793 -0.0660128
0.0751471 0.0745225 -0.0286324
0.0675318 0.0838122 0.0113593
0.051549 0.0197426 0.0475333
0.0336408 -0.0124633 0.111673
0.00467489 -0.0480438 0.166153
-0.0258737 -0.0759121 0.212877
-0.0749656 -0.113215 0.257416
-0.0791178 -0.131463 0.236566
-0.0971931 -0.149682 0.175586
-0.108167 -0.161645 0.102375
0.0833888 0.176197 -0.0694333
0.101795 0.126259 -0.0884667
0.131187 0.0470132 -0.101942
0.160069 -0.000326185 -0.100921
0.203216 -0.0579338 -0.131509
0.228185 -0.0922235 -0.147699
0.233231 -0.103918 -0.164229
0.228346 -0.0737198 -0.148613
0.173712 -0.0371146 -0.177383
0.126094 0.00810234 -0.122841
0.0782027 0.0407531 -0.0322182
0.0652781 0.0823667 0.00467853
0.0521419 0.0778293 0.0389088
0.0270964 0.00243958 0.0657124
0.00822159 -0.0365227 0.120598
-0.0262361 -0.0750118 0.167427
-0.0622074 -0.101966 0.208624
-0.116079 -0.133237 0.249481
-0.120676 -0.148857 0.223222
-0.136419 -0.162046 0.158753
-0.142373 -0.169056 0.0855203
0.0963891 0.142766 -0.058326
0.110474 0.09677 -0.0842685
0.135247 0.0263398 -0.108253
0.159794 -0.0106458 -0.113336
0.197002 -0.0550811 -0.154006
0.217938 -0.076487 -0.171727
0.220598 -0.0773884 -0.182341
0.215522 -0.0416215 -0.156015
0.16226 -0.00390311 -0.17263
0.116293 0.0384285 -0.112873
0.0692286 0.0640467 -0.0236264
0.0541685 0.089512 0.0161628
0.0379864 0.0696108 0.0513272
0.00704066 -0.0150936 0.0804651
-0.0138169 -0.0616046 0.126597
-0.0528155 -0.102654 0.166671
-0.0934863 -0.128468 0.199081
-0.151013 -0.152074 0.227644
-0.157751 -0.166105 0.195703
-0.171925 -0.175366 0.126338
-0.173621 -0.179231 0.0524692
0.114229 0.102093 -0.0271059
0.125687 0.0612113 -0.0564657
0.146193 0.00161835 -0.088109
0.165706 -0.0242337 -0.100449
0.197648 -0.0539069 -0.14856
0.215309 -0.0626482 -0.168664
0.217927 -0.0541459 -0.17679
0.215318 -0.0148934 -0.145457
0.169124 0.0213516 -0.155842
0.129642 0.0584373 -0.0943917
0.0876685 0.0757194 -0.00747239
0.0726698 0.0855782 0.037514
0.0542068 0.0523353 0.0767433
0.017608 -0.0382897 0.111802
-0.00704425 -0.0901131 0.152114
-0.0520942 -0.131241 0.184526
-0.0985269 -0.153462 0.20676
-0.160654 -0.167037 0.218303
-0.171235 -0.178387 0.180391
-0.186326 -0.183269 0.103185
-0.186743 -0.183798 0.0265337
0.141441 0.0394572 0.0323581
0.15552 0.00998478 0.00320817
0.175698 -0.0318824 -0.033138
0.191998 -0.0429975 -0.0554805
0.222975 -0.053081 -0.104353
0.240205 -0.0478818 -0.127179
0.246171 -0.0305086 -0.136546
0.248845 0.00891517 -0.107654
0.216133 0.0398032 -0.115479
0.187788 0.0662587 -0.059748
0.154954 0.0698902 0.0184027
0.141905 0.0580071 0.0731103
0.122063 0.00842148 0.124377
0.0812294 -0.0851272 0.173223
0.0516505 -0.142038 0.212053
0.00049672 -0.178782 0.23865
-0.0524332 -0.191694 0.247714
-0.121781 -0.186691 0.227721
-0.138371 -0.191076 0.188502
-0.158909 -0.186242 0.104167
-0.163965 -0.180196 0.0251462
0.16506 0.020448 0.0595035
0.178918 -0.00693061 0.0307489
0.195934 -0.0424265 -0.00793964
0.207789 -0.0472563 -0.0326197
0.233374 -0.048481 -0.0816997
0.247091 -0.0374009 -0.104907
0.252398 -0.0173052 -0.114245
0.257665 0.0202241 -0.0853475
0.231951 0.0472497 -0.0956431
0.210583 0.0697079 -0.040252
0.183661 0.0700846 0.0386327
0.171063 0.0544343 0.0924305
0.14932 0.00359111 0.141467
0.103956 -0.0885178 0.186223
0.0712627 -0.143191 0.218499
0.0155047 -0.17869 0.239312
-0.041756 -0.1903 0.241587
-0.113759 -0.1824 0.212918
-0.134054 -0.187353 0.170351
-0.15552 -0.182824 0.0819619
-0.160525 -0.176732 0.00234027
0.17961 -0.0120834 0.0808507
0.194922 -0.0320416 0.0539134
0.210065 -0.055966 0.0170174
0.217987 -0.0524597 -0.00884145
0.237928 -0.0433442 -0.053027
0.247656 -0.0268228 -0.0756997
0.252215 -0.00548286 -0.0861843
0.259599 0.0284978 -0.0609629
0.240704 0.049183 -0.0758361
0.226467 0.0648858 -0.0273835
0.205941 0.0593713 0.0441962
0.19461 0.0364223 0.0990503
0.172465 -0.016683 0.149113
0.126282 -0.103572 0.194703
0.0919705 -0.155497 0.223625
0.0358189 -0.186005 0.238683
-0.0213785 -0.192539 0.233531
-0.0920961 -0.176597 0.194229
-0.113867 -0.178785 0.15232
-0.136502 -0.171258 0.066496
-0.143395 -0.163884 -0.00740793
0.172891 -0.0355494 0.0816648
0.187435 -0.0482616 0.0567538
0.199771 -0.0623955 0.0243015
0.204007 -0.0533704 0.000772799
0.217495 -0.0374086 -0.0353441
0.222699 -0.0182464 -0.0553076
0.225056 0.0026006 -0.0666124
0.233324 0.0323099 -0.0455473
0.218059 0.0465082 -0.066598
0.208357 0.0563456 -0.0271668
0.192476 0.0469261 0.034948
0.182486 0.0205294 0.0872088
0.162054 -0.0311454 0.134482
0.119957 -0.110071 0.176849
0.0885948 -0.157515 0.202017
0.0386483 -0.183002 0.212663
-0.0119942 -0.185463 0.204153
-0.074996 -0.164167 0.163545
-0.0947597 -0.164034 0.126329
-0.116592 -0.154231 0.0500431
-0.124962 -0.146441 -0.0135696
0.137875 0.0131983 -0.0153264
0.145368 -0.0499117 -0.0218889
0.146354 -0.107027 -0.0238104
0.13873 -0.148719 -0.0149459
0.134237 -0.134978 -0.0150776
0.127338 -0.1386 -0.00607466
0.122167 -0.14681 0.00336488
0.11763 -0.156207 0.0241661
0.107643 -0.166388 0.0190774
0.0978112 -0.174301 0.0564405
0.0874572 -0.170694 0.105624
0.0749055 -0.11228 0.0887451
0.0635032 -0.0603074 0.0594482
0.040262 -0.0528504 0.0181578
0.0331693 -0.00632345 0.00971593
0.0162132 0.0200426 0.00418926
9.90148e-05 0.0426655 0.0114919
-0.0215538 0.0448352 0.0335037
-0.0238649 0.0773818 0.0196171
-0.0303736 0.0983245 -0.0194395
-0.0331395 0.11227 -0.0571287
0.141364 0.0353308 -0.034442
0.148835 -0.0350154 -0.0451906
0.147129 -0.102105 -0.0495788
0.135428 -0.148759 -0.0364597
0.127668 -0.142662 -0.0382813
0.118788 -0.150916 -0.0266387
0.114291 -0.162858 -0.0146645
0.112005 -0.172368 0.010235
0.10702 -0.181603 -0.00208064
0.100911 -0.186328 0.0334992
0.0929865 -0.177095 0.081252
0.0816694 -0.107806 0.0700151
0.0697706 -0.0476667 0.0479366
0.0455494 -0.0397804 0.0184507
0.0350424 0.00804707 0.0120499
0.0172902 0.0316326 0.00961055
0.00191956 0.0497819 0.0153884
-0.0197669 0.0445705 0.0261469
-0.0188906 0.0738994 0.00550335
-0.0239475 0.0914446 -0.048677
-0.0264502 0.102206 -0.0975785
0.123085 0.0659851 -0.0667398
0.128385 -0.00926593 -0.0805174
0.122345 -0.0856686 -0.0834012
0.106583 -0.13784 -0.0618642
0.095313 -0.14348 -0.0587708
0.0852732 -0.160017 -0.0404121
0.0829269 -0.178684 -0.0248617
0.0852851 -0.18912 0.00379615
0.086125 -0.197229 -0.0197287
0.0848584 -0.196521 0.00966507
0.0799755 -0.178667 0.0523974
0.071664 -0.0962814 0.0466411
0.0606437 -0.0264054 0.0331048
0.0385318 -0.016898 0.0174997
0.0254996 0.031294 0.0135434
0.00897672 0.0503581 0.0139316
-0.00264513 0.0608881 0.0168378
-0.0205954 0.0444143 0.0162436
-0.0148223 0.0670611 -0.0132526
-0.0163309 0.0779055 -0.0798372
-0.01819 0.0840644 -0.136539
0.0879657 0.0905936 -0.105613
0.0914793 0.0152253 -0.116872
0.0836305 -0.0654364 -0.110007
0.0668666 -0.121973 -0.0758736
0.0553811 -0.136185 -0.0592408
0.0463417 -0.160447 -0.0301717
0.0469966 -0.185607 -0.00890383
0.0544927 -0.198883 0.0218242
0.0594623 -0.206247 -0.00495256
0.0620196 -0.202173 0.0180957
0.0597111 -0.178055 0.0544545
0.0541305 -0.0854343 0.0496062
0.0437884 -0.00754875 0.0413551
0.0248766 0.00461303 0.0349649
0.00838049 0.0520782 0.0333498