# vtk DataFile Version 2.0
Func
ASCII
DATASET RECTILINEAR_GRID
DIMENSIONS 21 21 21
X_COORDINATES 21 double
-4.7619
-4.28571
-3.80952
-3.33333
-2.85714
-2.38095
-1.90476
-1.42857
-0.952381
-0.47619
0
0.47619
0.952381
1.42857
1.90476
2.38095
2.85714
3.33333
3.80952
4.28571
4.7619
Y_COORDINATES 21 double
-4.7619
-4.28571
-3.80952
-3.33333
-2.85714
-2.38095
-1.90476
-1.42857
-0.952381
-0.47619
0
0.47619
0.952381
1.42857
1.90476
2.38095
2.85714
3.33333
3.80952
4.28571
4.7619
Z_COORDINATES 21 double
-4.7619
-4.28571
-3.80952
-3.33333
-2.85714
-2.38095
-1.90476
-1.42857
-0.952381
-0.47619
0
0.47619
0.952381
1.42857
1.90476
2.38095
2.85714
3.33333
3.80952
4.28571
4.7619
POINT_DATA 9261
SCALARS data double 3
LOOKUP_TABLE default
-0.0277701 0.0126574 0.137015
-0.057008 -0.0203074 0.156705
-0.0864486 -0.0689931 0.155084
-0.11055 -0.121526 0.131468
-0.124128 -0.159214 0.0879014
-0.123693 -0.161105 0.0333131
-0.110749 -0.114508 -0.0203576
-0.0872673 -0.021564 -0.0635387
-0.0583587 0.0997558 -0.0904258
-0.0300643 0.223016 -0.0962975
-0.00622426 0.318627 -0.0816295
0.010702 0.363917 -0.0505191
0.0202722 0.349418 -0.0112477
0.0242315 0.281614 0.0254537
0.0259506 0.182514 0.0496969
0.0285755 0.0800691 0.0553662
0.0329716 -0.00352559 0.041995
0.03806 -0.0540152 0.0177979
0.0428257 -0.0701909 -0.0108582
0.0452607 -0.0599121 -0.0340177
0.0414552 -0.0353692 -0.0449906
-0.0217235 0.0251936 0.159318
-0.0574205 -0.0133151 0.178503
-0.0975482 -0.0716886 0.172684
-0.134627 -0.135792 0.142507
-0.161733 -0.183185 0.0909537
-0.173154 -0.189679 0.0262289
-0.168162 -0.139999 -0.037674
-0.146975 -0.0355473 -0.0896202
-0.113499 0.103543 -0.121855
-0.074501 0.246511 -0.127958
-0.0360013 0.357594 -0.10655
-0.00398646 0.409405 -0.0612788
0.0175967 0.390596 -0.00218401
0.0281842 0.309553 0.0562742
0.0300399 0.193025 0.0991859
0.0268677 0.0749933 0.116705
0.0215624 -0.018083 0.105675
0.0154474 -0.0698939 0.0755047
0.0102738 -0.080596 0.0351125
0.00641396 -0.0615055 -0.0018191
0.00135172 -0.029412 -0.0250501
-0.00615123 0.0314079 0.159918
-0.042206 -0.0096833 0.173122
-0.0873375 -0.0734298 0.160327
-0.133228 -0.144267 0.12445
-0.172335 -0.197814 0.0696295
-0.197409 -0.208451 0.0023313
-0.204905 -0.159167 -0.0633259
-0.192362 -0.049947 -0.116194
-0.161697 0.0985463 -0.148501
-0.119053 0.253112 -0.152771
-0.0720233 0.373675 -0.125638
-0.029927 0.429208 -0.0693824
-0.000252973 0.406719 0.00565426
0.0133807 0.315919 0.0827419
0.0114714 0.186784 0.1437
-0.00139116 0.0580084 0.174908
-0.0206583 -0.0403762 0.170414
-0.0413128 -0.0906508 0.138817
-0.0580477 -0.0943287 0.0914934
-0.0675786 -0.0663166 0.0444078
-0.0707313 -0.0273358 0.0102634
0.0216377 0.025442 0.139322
-0.00789587 -0.0162589 0.142004
-0.0505103 -0.0806113 0.121049
-0.0987283 -0.152268 0.0817339
-0.145517 -0.206483 0.0291348
-0.182747 -0.218187 -0.0316399
-0.204733 -0.170441 -0.0892501
-0.206478 -0.0617826 -0.134707
-0.187258 0.0882684 -0.162685
-0.151361 0.246145 -0.16553
-0.106783 0.369638 -0.138158
-0.0649142 0.425556 -0.0804089
-0.0356765 0.399782 -0.000746688
-0.0248913 0.30277 0.0843037
-0.0343128 0.166412 0.156303
-0.0588115 0.0322638 0.199467
-0.0919433 -0.0673369 0.204673
-0.125577 -0.114103 0.177678
-0.151649 -0.11099 0.132507
-0.164122 -0.0751303 0.084412
-0.161929 -0.0304336 0.0459673
0.0593662 0.00124802 0.0995458
0.0438614 -0.0397786 0.0889466
0.0131742 -0.0997965 0.0604499
-0.0277546 -0.165319 0.0212213
-0.0740549 -0.213024 -0.0218262
-0.118513 -0.220888 -0.0660544
-0.154182 -0.173673 -0.105584
-0.174403 -0.0691039 -0.136773
-0.175454 0.0759374 -0.157902
-0.15854 0.229623 -0.162957
-0.130113 0.350058 -0.145471
-0.101341 0.403599 -0.101668
-0.0826137 0.37561 -0.0354548
-0.0806523 0.276553 0.0404505
-0.0990382 0.138737 0.110818
-0.133138 0.00427967 0.160734
-0.17609 -0.0931318 0.178324
-0.217742 -0.136051 0.165227
-0.248546 -0.127786 0.134604
-0.260502 -0.0870896 0.0989656
-0.251243 -0.0387473 0.0676774
0.102643 -0.0422863 0.045107
0.106789 -0.0828523 0.0202525
0.0956271 -0.135237 -0.013421
0.0701492 -0.188506 -0.0458155
0.0318422 -0.222928 -0.0696769
-0.0146644 -0.221315 -0.0871867
-0.062137 -0.171756 -0.100573
-0.103133 -0.0719022 -0.113061
-0.13071 0.0648139 -0.127859
-0.141946 0.209727 -0.14244
-0.140024 0.323293 -0.148591
-0.133666 0.372853 -0.137479
-0.131861 0.343844 -0.105643
-0.141068 0.246203 -0.058166
-0.166237 0.111226 -0.00405912
-0.204184 -0.0196887 0.0450048
-0.249194 -0.112892 0.0757532
-0.291379 -0.152133 0.0852049
-0.321185 -0.141406 0.0819932
-0.329984 -0.0994821 0.0722024
-0.314749 -0.0503572 0.0607651
0.13385 -0.103679 -0.0190793
0.158551 -0.145249 -0.0562362
0.170147 -0.188154 -0.0901835
0.164749 -0.22513 -0.108645
0.13973 -0.240937 -0.105374
0.0959007 -0.224606 -0.0893064
0.0398328 -0.168883 -0.0721937
-0.0208586 -0.0718815 -0.0654072
-0.0759672 0.0563995 -0.0778415
-0.117878 0.191089 -0.110766
-0.145329 0.296428 -0.153597
-0.163016 0.341849 -0.191145
-0.177402 0.313387 -0.21051
-0.194091 0.220132 -0.206542
-0.219191 0.0912819 -0.179987
-0.252286 -0.0334171 -0.138088
-0.290246 -0.121088 -0.0947177
-0.325355 -0.157561 -0.0569433
-0.34935 -0.147017 -0.0238269
-0.354005 -0.107483 0.00284482
-0.336057 -0.0606263 0.0218674
0.132442 -0.175283 -0.0951714
0.172676 -0.219753 -0.143324
0.204702 -0.253218 -0.173905
0.219644 -0.272554 -0.173275
0.210663 -0.267752 -0.138016
0.17421 -0.233964 -0.0835067
0.11525 -0.169017 -0.0322579
0.0407537 -0.0722564 -0.00454769
-0.0365205 0.0492899 -0.0152154
-0.104478 0.17444 -0.0693397
-0.157096 0.272013 -0.153898
-0.194332 0.314249 -0.247008
-0.219475 0.28823 -0.325568
-0.236898 0.202079 -0.372952
-0.253692 0.0823564 -0.380644
-0.272803 -0.0339104 -0.350761
-0.294988 -0.115041 -0.296996
-0.316162 -0.149306 -0.229974
-0.330254 -0.140946 -0.157792
-0.330403 -0.106456 -0.0909398
-0.3133 -0.064942 -0.0368001
0.0846299 -0.246763 -0.182724
0.130152 -0.296013 -0.241434
0.17451 -0.322319 -0.267298
0.204871 -0.326191 -0.246387
0.210816 -0.302492 -0.178402
0.184794 -0.251576 -0.083891
0.129477 -0.176245 0.00328942
0.0504464 -0.0774661 0.0543296
-0.0381578 0.0398859 0.0490226
-0.120704 0.157573 -0.0213652
-0.187144 0.249145 -0.142061
-0.233121 0.289985 -0.285446
-0.258906 0.268555 -0.419158
-0.267797 0.192144 -0.515642
-0.26795 0.0845187 -0.557462
-0.265977 -0.0204893 -0.541273
-0.266727 -0.0932636 -0.479852
-0.270395 -0.124787 -0.387265
-0.273571 -0.119303 -0.280637
-0.270796 -0.0912345 -0.178067
-0.25827 -0.0574965 -0.0927978
-0.010052 -0.30413 -0.273784
0.0278498 -0.359492 -0.342387
0.0721676 -0.382825 -0.363831
0.108407 -0.376895 -0.324775
0.12402 -0.340402 -0.228307
0.108814 -0.276872 -0.0981746
0.0629963 -0.193119 0.0220533
-0.00967629 -0.0917425 0.0968231
-0.0951812 0.0234916 0.101954
-0.176025 0.1361 0.0259006
-0.239918 0.223774 -0.115951
-0.279778 0.264945 -0.292351
-0.293852 0.249695 -0.464416
-0.284956 0.184911 -0.5964
-0.262426 0.0918639 -0.664018
-0.236209 0.00114548 -0.659278
-0.214644 -0.0602737 -0.593611
-0.20161 -0.0865291 -0.483941
-0.195932 -0.0822506 -0.354704
-0.192971 -0.0602653 -0.229315
-0.188211 -0.0357372 -0.125248
-0.137628 -0.334577 -0.355174
-0.119203 -0.395952 -0.431853
-0.0873289 -0.421067 -0.450516
-0.0556434 -0.41307 -0.399144
-0.0369932 -0.372822 -0.283721
-0.0424261 -0.304451 -0.128241
-0.0739652 -0.217249 0.0173351
-0.129903 -0.115037 0.11358
-0.197999 -0.00150699 0.134317
-0.261025 0.107331 0.0662597
-0.306715 0.192252 -0.0761462
-0.327355 0.234401 -0.261003
-0.32045 0.225687 -0.446872
-0.288882 0.173237 -0.593931
-0.243016 0.0963928 -0.674139
-0.19514 0.022724 -0.676173
-0.155636 -0.0238868 -0.609876
-0.130563 -0.0412842 -0.494421
-0.120054 -0.0349324 -0.358366
-0.119457 -0.0169566 -0.227316
-0.123146 -0.00171372 -0.121001
-0.268773 -0.329991 -0.406906
-0.276732 -0.39564 -0.487227
-0.266222 -0.426834 -0.504751
-0.247546 -0.424976 -0.449218
-0.231966 -0.391156 -0.328494
-0.229569 -0.327501 -0.163914
-0.243988 -0.243925 -0.00673694
-0.275521 -0.144778 0.103574
-0.315218 -0.0345228 0.141269
-0.34835 0.0702295 0.0926066
-0.364898 0.152095 -0.0304227
-0.358561 0.194513 -0.19856
-0.32731 0.191403 -0.372302
-0.274405 0.150841 -0.512442
-0.210647 0.0909381 -0.590703
-0.149144 0.036589 -0.59402
-0.100448 0.00824735 -0.530502
-0.0708727 0.00375262 -0.420589
-0.0607071 0.0162433 -0.293382
-0.064589 0.0331904 -0.173527
-0.075718 0.0403718 -0.0809281
-0.36762 -0.289573 -0.409133
-0.401728 -0.356236 -0.485294
-0.41557 -0.395976 -0.501866
-0.414281 -0.406804 -0.45066
-0.405906 -0.388329 -0.340299
-0.398038 -0.338692 -0.187215
-0.395003 -0.266652 -0.0377751
-0.398737 -0.176213 0.0728173
-0.404577 -0.0730756 0.121975
-0.402254 0.0251125 0.0971166
-0.385748 0.101825 0.00677888
-0.351705 0.142495 -0.125318
-0.299464 0.143197 -0.265779
-0.232652 0.113487 -0.380429
-0.161516 0.0706987 -0.444125
-0.098228 0.0373032 -0.443764
-0.0516013 0.0300368 -0.3857
-0.0263899 0.0419009 -0.290142
-0.0219884 0.0641696 -0.183583
-0.0320072 0.0829678 -0.0871783
-0.0488331 0.0843931 -0.0191424
-0.403753 -0.221367 -0.350031
-0.456569 -0.285458 -0.412165
-0.491039 -0.334052 -0.426443
-0.506427 -0.361064 -0.386814
-0.506476 -0.363587 -0.301852
-0.495293 -0.334688 -0.182125
-0.476791 -0.280608 -0.062893
-0.453879 -0.204241 0.0289779
-0.426503 -0.11272 0.0767541
-0.390214 -0.0245628 0.0708809
-0.343957 0.043969 0.0162945
-0.288126 0.0801771 -0.07066
-0.223913 0.082413 -0.16572
-0.155006 0.0620106 -0.243121
-0.0898306 0.0357168 -0.283571
-0.03795 0.0237027 -0.275635
-0.00488882 0.0388256 -0.224084
0.00750234 0.0689384 -0.147035
0.00144395 0.103299 -0.0663773
-0.0158458 0.126447 0.0017188
-0.0367736 0.124046 0.042183
-0.364987 -0.142116 -0.238503
-0.424931 -0.201156 -0.278226
-0.471677 -0.257272 -0.28755
-0.499302 -0.300241 -0.263695
-0.506749 -0.324229 -0.214266
-0.494441 -0.317621 -0.143943
-0.464713 -0.283719 -0.0732272
-0.420673 -0.223685 -0.0180061
-0.366472 -0.146176 0.0129412
-0.303846 -0.0701574 0.0148299
-0.236698 -0.0118787 -0.0102229
-0.169113 0.017863 -0.053609
-0.104168 0.0197739 -0.101523
-0.0451804 0.00706762 -0.13838
0.00231772 -0.00408592 -0.152395
0.0325273 0.00419698 -0.135169
0.0443508 0.0409753 -0.0902061
0.0388605 0.0888527 -0.0319567
0.0198927 0.135458 0.0234097
-0.00488792 0.162842 0.0654082
-0.0285824 0.157277 0.0830038
-0.258232 -0.0714805 -0.0960402
-0.31235 -0.124475 -0.107246
-0.360885 -0.185023 -0.10965
-0.393757 -0.240644 -0.102802
-0.405756 -0.282185 -0.0937231
-0.393624 -0.294415 -0.082246
-0.357759 -0.277407 -0.0724073
-0.300514 -0.231812 -0.0679017
-0.229257 -0.167353 -0.0686813
-0.151378 -0.103008 -0.0732457
-0.0750051 -0.0549856 -0.080962
-0.00712508 -0.0321483 -0.0901114
0.047658 -0.0315028 -0.0970964
0.0868568 -0.0380377 -0.096761
0.108596 -0.0362749 -0.0853081
0.112021 -0.010442 -0.0583753
0.0993791 0.0447357 -0.0186016
0.0746937 0.107583 0.0245281
0.0431243 0.163539 0.0610192
0.0116245 0.192692 0.0853741
-0.0141545 0.183299 0.0899718
-0.109706 -0.0209609 0.0498019
-0.147541 -0.0677185 0.0679011
-0.187942 -0.12897 0.0741597
-0.218856 -0.191673 0.0653822
-0.231546 -0.244067 0.0361909
-0.220387 -0.268717 -0.0109233
-0.18312 -0.263067 -0.0643654
-0.121244 -0.227386 -0.116159
-0.0437261 -0.173095 -0.157686
0.0377348 -0.118335 -0.180566
0.112142 -0.0790214 -0.184228
0.170708 -0.0621298 -0.172085
0.20783 -0.0626524 -0.149129
0.222079 -0.0641865 -0.11948
0.215712 -0.0521177 -0.0866777
0.192006 -0.0129014 -0.0508934
0.155979 0.0554563 -0.0143029
0.114154 0.128265 0.0192475
0.0725636 0.188778 0.0452403
0.0365322 0.216666 0.0617213
0.00907685 0.202092 0.0642384
0.0360155 0.00448944 0.163361
0.0184487 -0.0362789 0.20352
-0.00858613 -0.0940758 0.216567
-0.033036 -0.157211 0.196719
-0.0444231 -0.212287 0.139319
-0.0353959 -0.241426 0.0482752
-0.00168242 -0.240377 -0.0547143
0.0570462 -0.209476 -0.15282
0.131159 -0.161503 -0.230751
0.206686 -0.113181 -0.274915
0.271326 -0.0797759 -0.28372
0.315572 -0.0665729 -0.263282
0.333356 -0.0671443 -0.224105
0.324282 -0.0644862 -0.176704
0.294151 -0.0452445 -0.130248
0.249769 0.00198451 -0.0888446
0.197815 0.0766349 -0.0543751
0.146258 0.152521 -0.0257695
0.100635 0.211733 -0.00367275
0.0643944 0.23483 0.0117161
0.0371437 0.213967 0.0191257
0.145448 0.005717 0.223555
0.147425 -0.0300877 0.275639
0.135592 -0.0813958 0.292646
0.120302 -0.138727 0.266694
0.112143 -0.188579 0.195315
0.118724 -0.214289 0.0808324
0.145966 -0.211177 -0.0501283
0.195025 -0.180416 -0.176494
0.258061 -0.135032 -0.278657
0.320712 -0.090155 -0.339625
0.370756 -0.059919 -0.356474
0.398944 -0.0481385 -0.335946
0.399324 -0.0476206 -0.291126
0.372384 -0.0416514 -0.236136
0.326282 -0.0185449 -0.183649
0.270334 0.0311365 -0.140369
0.211997 0.105095 -0.108227
0.159154 0.177295 -0.0827114
0.11633 0.229846 -0.0617236
0.0846918 0.245424 -0.043841
0.0609516 0.218158 -0.0282286
0.200662 -0.00907713 0.226045
0.216012 -0.0405953 0.278865
0.216012 -0.0833969 0.296867
0.208686 -0.130604 0.271107
0.20318 -0.170045 0.199225
0.206711 -0.187352 0.0838387
0.225594 -0.178456 -0.0506674
0.261985 -0.145705 -0.182482
0.309794 -0.101021 -0.291356
0.356797 -0.0578566 -0.358929
0.391694 -0.0288028 -0.381428
0.406186 -0.0165366 -0.364759
0.39486 -0.0138748 -0.322008
0.358837 -0.00537046 -0.268248
0.307094 0.0186921 -0.217024
0.24991 0.0659026 -0.176186
0.195073 0.133204 -0.147774
0.149409 0.196276 -0.125741
0.115451 0.238562 -0.105778
0.0920373 0.245615 -0.0853435
0.0743024 0.213458 -0.06288
0.198048 -0.0258452 0.181476
0.218548 -0.0535216 0.225283
0.225251 -0.0871617 0.241307
0.223591 -0.122433 0.220297
0.220212 -0.149061 0.160203
0.221379 -0.155719 0.063236
0.232542 -0.13963 -0.0519834
0.25594 -0.104375 -0.167204
0.287441 -0.0607182 -0.264267
0.317864 -0.0202895 -0.326287
0.338746 0.00685109 -0.349311
0.343256 0.0191734 -0.337485
0.327116 0.0234463 -0.301827
0.291485 0.0328694 -0.255899
0.244764 0.0556646 -0.211822
0.196468 0.0974532 -0.177286
0.152894 0.154692 -0.154251
0.11943 0.205798 -0.136787
0.0971997 0.236407 -0.119645
0.0834051 0.235498 -0.100104
0.0726474 0.200894 -0.0756126
0.00719832 0.0295631 0.146083
-0.0180835 -0.0127825 0.170454
-0.0457319 -0.0765125 0.17351
-0.0687692 -0.146269 0.15393
-0.0820211 -0.19846 0.112498
-0.0819227 -0.208524 0.0543662
-0.0698914 -0.158288 -0.0105201
-0.0478774 -0.0494745 -0.0717212
-0.020492 0.0957563 -0.120073
0.00619189 0.243597 -0.145743
0.0290075 0.356703 -0.144551
0.0459817 0.406418 -0.117085
0.056715 0.381367 -0.0707636
0.0630604 0.29136 -0.0184545
0.0681892 0.165886 0.0256718
0.0745515 0.0406891 0.0501274
0.0816197 -0.0556511 0.0501008
0.087162 -0.106914 0.0325142
0.0897143 -0.114131 0.00345192
0.0870556 -0.0897724 -0.0239735
0.0766515 -0.051022 -0.0402081
0.0272422 0.0541834 0.170951
-0.00264081 0.00792028 0.195017
-0.0405324 -0.0668491 0.193489
-0.0782334 -0.151856 0.166631
-0.108912 -0.21917 0.116321
-0.125539 -0.239251 0.0470235
-0.126309 -0.189563 -0.0296262
-0.110313 -0.0700728 -0.101471
-0.0804071 0.0949714 -0.156936
-0.0428681 0.266521 -0.183828
-0.00335877 0.399411 -0.175342
0.0318711 0.458529 -0.131195
0.0578376 0.429529 -0.0607277
0.0731831 0.324229 0.018683
0.0793249 0.177776 0.0865042
0.0791087 0.0334024 0.126063
0.0741855 -0.0746982 0.129087
0.0653785 -0.127519 0.103899
0.0546644 -0.1273 0.0598176
0.0430644 -0.0911357 0.0147472
0.0299983 -0.0420946 -0.0169029
0.0565814 0.073732 0.17133
0.0278275 0.0283302 0.188782
-0.0151209 -0.0512801 0.179043
-0.0640763 -0.145318 0.145295
-0.111376 -0.223756 0.0909985
-0.147332 -0.253949 0.0191354
-0.16618 -0.209985 -0.0584356
-0.163146 -0.0888968 -0.129943
-0.138403 0.0852938 -0.183814
-0.0972753 0.270829 -0.20681
-0.047399 0.416957 -0.189936
0.00060879 0.483267 -0.131444
0.0371535 0.452442 -0.0411286
0.0565021 0.337106 0.0608298
0.0577989 0.176013 0.149727
0.0448762 0.0183189 0.204259
0.0217563 -0.0971033 0.212909
-0.0058285 -0.149083 0.18333
-0.0312172 -0.141007 0.128165
-0.0497854 -0.0943074 0.0685707
-0.0601015 -0.0368546 0.0223895
0.0961657 0.0791243 0.148737
0.0755613 0.037912 0.154497
0.0353745 -0.0395918 0.135089
-0.0176754 -0.134385 0.0968634
-0.0763941 -0.216738 0.044459
-0.129258 -0.253205 -0.019677
-0.167438 -0.216726 -0.0864444
-0.182745 -0.101291 -0.146749
-0.172146 0.0715653 -0.192286
-0.138764 0.260369 -0.20996
-0.0911065 0.411673 -0.189442
-0.042736 0.481662 -0.12666
-0.00643021 0.450527 -0.0295357
0.00890193 0.330652 0.0817464
-0.000490544 0.162433 0.182186
-0.0296518 -0.00179152 0.247879
-0.0718442 -0.120034 0.264121
-0.116852 -0.169844 0.235659
-0.154181 -0.15564 0.178784
-0.175655 -0.101225 0.11433
-0.178009 -0.037968 0.0607022
0.142552 0.0610269 0.105849
0.137749 0.0256377 0.0973094
0.110452 -0.0428662 0.0695052
0.0643254 -0.12882 0.0312154
0.00454165 -0.205094 -0.0109816
-0.0578801 -0.240813 -0.0562607
-0.112404 -0.209959 -0.100679
-0.148602 -0.104359 -0.141532
-0.160379 0.0587174 -0.175156
-0.147665 0.241036 -0.190928
-0.117839 0.389672 -0.177818
-0.0847205 0.459686 -0.128323
-0.0617572 0.42957 -0.0455126
-0.0591622 0.310457 0.0545913
-0.0826404 0.142314 0.150815
-0.127337 -0.0223025 0.220427
-0.185011 -0.139678 0.246205
-0.242271 -0.187583 0.228824
-0.286152 -0.170244 0.183825
-0.306098 -0.112686 0.129641
-0.29776 -0.0469944 0.0815826
0.190901 0.0167831 0.048595
0.207893 -0.0131823 0.0255141
0.202107 -0.0681702 -0.00732975
0.172768 -0.136913 -0.0377987
0.121735 -0.197619 -0.059127
0.0575667 -0.224295 -0.0743486
-0.0088277 -0.194412 -0.0874928
-0.066124 -0.0987458 -0.103677
-0.105425 0.050494 -0.125454
-0.122603 0.22025 -0.147193
-0.122128 0.360728 -0.156967
-0.115496 0.427839 -0.142456
-0.114548 0.39928 -0.0987959
-0.129107 0.284372 -0.0333007
-0.166012 0.120891 0.0402616
-0.221137 -0.0399454 0.103481
-0.286588 -0.154429 0.138619
-0.348239 -0.201039 0.141639
-0.392582 -0.184104 0.123525
-0.408153 -0.127846 0.0956289
-0.390298 -0.0630251 0.0684734
0.222034 -0.0534788 -0.018215
0.261682 -0.0806632 -0.0529092
0.281312 -0.119996 -0.0842402
0.274993 -0.165908 -0.0979529
0.240398 -0.203033 -0.0887846
0.181951 -0.212265 -0.0661412
0.109595 -0.176797 -0.0434839
0.0345048 -0.0874675 -0.0349879
-0.0317152 0.0483598 -0.0504207
-0.080516 0.203479 -0.0893413
-0.112183 0.333031 -0.138075
-0.134039 0.395396 -0.177943
-0.15495 0.368454 -0.193763
-0.183364 0.259639 -0.18107
-0.226766 0.103336 -0.143788
-0.283219 -0.0512973 -0.0946746
-0.346647 -0.161664 -0.0509478
-0.404574 -0.207946 -0.0206059
-0.44444 -0.194189 -0.000699322
-0.455199 -0.14287 0.0110484
-0.43226 -0.0816397 0.0181894
0.211864 -0.141158 -0.0980052
0.267696 -0.16929 -0.142804
0.309743 -0.19382 -0.168154
0.327063 -0.215098 -0.158773
0.313136 -0.22472 -0.113101
0.267275 -0.210929 -0.0469882
0.197115 -0.163852 0.0150852
0.112584 -0.0756911 0.0489559
0.0270512 0.0499419 0.0376481
-0.0469448 0.191276 -0.0233893
-0.105114 0.309294 -0.118337
-0.149777 0.365993 -0.221555
-0.186085 0.340448 -0.306594
-0.220452 0.238573 -0.355781
-0.260728 0.0911592 -0.362119
-0.307737 -0.0557773 -0.331902
-0.358952 -0.160987 -0.28122
-0.405196 -0.207062 -0.221398
-0.436175 -0.197602 -0.15901
-0.442294 -0.153007 -0.101949
-0.419286 -0.0972988 -0.0539062
0.144211 -0.234186 -0.191478
0.203382 -0.26749 -0.246855
0.257881 -0.281012 -0.265219
0.293108 -0.280184 -0.231688
0.299059 -0.262841 -0.148447
0.270031 -0.224071 -0.0369729
0.210413 -0.161319 0.0659318
0.127738 -0.0693069 0.126737
0.0358963 0.0506774 0.12221
-0.0497314 0.18096 0.0432516
-0.120945 0.288505 -0.0926388
-0.175502 0.339637 -0.253711
-0.214981 0.315541 -0.403274
-0.243798 0.221354 -0.511142
-0.27027 0.0846238 -0.559892
-0.298389 -0.0520831 -0.549091
-0.32958 -0.14996 -0.493028
-0.359041 -0.194367 -0.406429
-0.379443 -0.188601 -0.305322
-0.382856 -0.150584 -0.206716
-0.364584 -0.101567 -0.121518
0.0203514 -0.314435 -0.290279
0.0670848 -0.356417 -0.35713
0.118903 -0.365311 -0.37025
0.16032 -0.349507 -0.315895
0.179495 -0.31153 -0.200086
0.167054 -0.251388 -0.0484401
0.12399 -0.173059 0.0913319
0.0548825 -0.0743299 0.178479
-0.0272445 0.0442002 0.185417
-0.105956 0.166978 0.0996882
-0.17095 0.266143 -0.0605789
-0.217261 0.31242 -0.259735
-0.244117 0.289821 -0.453964
-0.254729 0.203741 -0.603851
-0.258227 0.0793664 -0.684035
-0.261628 -0.0440076 -0.688414
-0.269891 -0.130668 -0.629209
-0.282131 -0.169464 -0.523925
-0.293608 -0.164043 -0.396188
-0.297439 -0.13079 -0.269743
-0.28802 -0.088951 -0.160919
-0.142452 -0.364487 -0.380551
-0.122389 -0.416633 -0.458619
-0.0882472 -0.427826 -0.470022
-0.0535297 -0.406841 -0.402732
-0.0299122 -0.358583 -0.265698
-0.0284681 -0.285268 -0.0858034
-0.0511964 -0.195718 0.0816438
-0.0966361 -0.0906954 0.191989
-0.154121 0.0283954 0.215802
-0.208311 0.146086 0.138639
-0.249114 0.238332 -0.0223649
-0.271232 0.279971 -0.230934
-0.273074 0.258384 -0.440674
-0.257513 0.180368 -0.60783
-0.234604 0.0698241 -0.702782
-0.213595 -0.0368682 -0.715381
-0.201616 -0.107619 -0.655701
-0.200201 -0.135686 -0.543388
-0.206212 -0.125798 -0.406155
-0.212905 -0.094119 -0.270939
-0.213259 -0.059351 -0.157264
-0.308779 -0.371819 -0.440116
-0.323099 -0.433028 -0.525772
-0.316828 -0.452687 -0.538743
-0.298905 -0.437151 -0.468932
-0.278926 -0.39105 -0.326791
-0.267521 -0.315777 -0.137321
-0.268799 -0.222596 0.0420298
-0.284162 -0.114626 0.167065
-0.306604 0.00475822 0.209389
-0.32403 0.118387 0.154084
-0.328811 0.204352 0.0156145
-0.317546 0.241012 -0.172827
-0.289242 0.219421 -0.367416
-0.247052 0.148821 -0.525545
-0.201573 0.0529424 -0.617451
-0.162947 -0.0342596 -0.630817
-0.138586 -0.0846581 -0.573519
-0.130458 -0.0968931 -0.466266
-0.135734 -0.0775967 -0.336997
-0.147047 -0.0441315 -0.212161
-0.155917 -0.015748 -0.112061
-0.435648 -0.332934 -0.446562
-0.482822 -0.399464 -0.531479
-0.50671 -0.431061 -0.546888
-0.510054 -0.429608 -0.484785
-0.498896 -0.39717 -0.35573
-0.481515 -0.331782 -0.180107
-0.462939 -0.244613 -0.0105939
-0.446745 -0.140011 0.11386
-0.430387 -0.0238759 0.168977
-0.406772 0.0840971 0.141164
-0.372488 0.16278 0.0410491
-0.327559 0.193477 -0.104602
-0.272575 0.17094 -0.259302
-0.211184 0.107438 -0.38665
-0.15363 0.0270876 -0.460589
-0.109316 -0.0383244 -0.468573
-0.0839656 -0.0649125 -0.416291
-0.0780862 -0.0575147 -0.323819
-0.0879614 -0.025254 -0.215986
-0.105244 0.0123038 -0.115739
-0.120487 0.0355439 -0.041946
-0.487368 -0.255889 -0.386074
-0.556982 -0.322755 -0.458692
-0.604681 -0.366922 -0.474842
-0.626987 -0.384627 -0.428496
-0.625641 -0.374041 -0.329577
-0.605262 -0.328173 -0.192351
-0.57049 -0.255846 -0.0575866
-0.526033 -0.161425 0.045461
-0.47395 -0.0534629 0.0994797
-0.413211 0.0458866 0.094276
-0.34553 0.115411 0.0363895
-0.274933 0.138911 -0.0559814
-0.204053 0.114714 -0.157077
-0.136811 0.0582424 -0.240412
-0.0818108 -0.00595988 -0.286664
-0.046131 -0.0482323 -0.284945
-0.0322167 -0.0491337 -0.238948
-0.0377205 -0.0202854 -0.166005
-0.0572185 0.0265092 -0.0858636
-0.0815642 0.0695444 -0.0161479
-0.101341 0.0876363 0.0275055
-0.448955 -0.159629 -0.268277
-0.525281 -0.222331 -0.317778
-0.584879 -0.277169 -0.330408
-0.619146 -0.314657 -0.303712
-0.625316 -0.328501 -0.245973
-0.604172 -0.30647 -0.164647
-0.55866 -0.25392 -0.0844638
-0.49346 -0.173895 -0.0221299
-0.414707 -0.0774749 0.0140738
-0.327486 0.0113578 0.0192645
-0.238515 0.0708749 -0.00333787
-0.155422 0.0870824 -0.0445588
-0.082769 0.0615517 -0.0907438
-0.0242504 0.01258 -0.127074
0.0143787 -0.0352302 -0.142679
0.029492 -0.0545321 -0.129787
0.023287 -0.0302647 -0.0904014
0.000670003 0.0189138 -0.0375767
-0.0314135 0.0791673 0.0150736
-0.0631487 0.125549 0.0562725
-0.085986 0.137028 0.0744708
-0.329324 -0.0672052 -0.116446
-0.395277 -0.122744 -0.134225
-0.452457 -0.183893 -0.139448
-0.488586 -0.238262 -0.132289
-0.497637 -0.274325 -0.120359
-0.476271 -0.275346 -0.104904
-0.425448 -0.241839 -0.0922405
-0.348861 -0.176507 -0.0856307
-0.255464 -0.0921384 -0.0835054
-0.155644 -0.0136742 -0.0837329
-0.0602775 0.0366529 -0.085014
0.0206116 0.046839 -0.0862564
0.0810693 0.0212169 -0.0854742
0.118242 -0.0195659 -0.0795112
0.130179 -0.0514584 -0.0663019
0.118144 -0.0494923 -0.0421938
0.0872648 -0.00312622 -0.00812271
0.0453187 0.0631735 0.0284457
0.000630566 0.132619 0.0603187
-0.0380554 0.178214 0.0818244
-0.0635075 0.180784 0.0851594
-0.159265 0.00524971 0.0396031
-0.201739 -0.0412499 0.0559095
-0.243884 -0.10384 0.0614329
-0.27253 -0.168887 0.051946
-0.279075 -0.221132 0.0213142
-0.257652 -0.240171 -0.02833
-0.206348 -0.222177 -0.0853845
-0.12777 -0.168775 -0.140247
-0.0320908 -0.095099 -0.182226
0.0666344 -0.0254803 -0.201369
0.154882 0.0177335 -0.196772
0.221604 0.0243337 -0.173412
0.260141 0.000746309 -0.138986
0.268865 -0.0309702 -0.10045
0.250463 -0.0480047 -0.0636135
0.209782 -0.0282582 -0.0295576
0.154634 0.0347421 0.00136746
0.0950529 0.112241 0.0278704
0.0400994 0.184845 0.0480636
-0.00327347 0.225367 0.0605563
-0.0311155 0.216959 0.0608375
0.00824179 0.0494099 0.160567
-0.00664571 0.0125357 0.203422
-0.0282381 -0.0463515 0.218301
-0.0447065 -0.114456 0.197807
-0.0467371 -0.174239 0.136159
-0.0265786 -0.203727 0.0380831
0.0196856 -0.195454 -0.0732255
0.091983 -0.150372 -0.178505
0.179646 -0.0849907 -0.260015
0.267162 -0.021927 -0.301979
0.340024 0.0169786 -0.302628
0.38726 0.023086 -0.270132
0.402023 0.00400591 -0.218205
0.383915 -0.0180574 -0.160465
0.339696 -0.0224237 -0.108663
0.277312 0.00993574 -0.0679339
0.20602 0.082126 -0.0383139
0.136908 0.163078 -0.0162004
0.078311 0.232115 4.77835e-05
0.0349547 0.263547 0.0113102
0.00681239 0.243328 0.0163043
0.135908 0.0628111 0.224796
0.146191 0.0346942 0.282203
0.145423 -0.016724 0.302829
0.142424 -0.0803178 0.276519
0.145994 -0.138608 0.200036
0.163948 -0.169848 0.0765244
0.202118 -0.164733 -0.0650729
0.261362 -0.124069 -0.200998
0.333631 -0.06436 -0.309175
0.403636 -0.00571496 -0.370033
0.457265 0.0313696 -0.38049
0.484394 0.0396616 -0.349275
0.47843 0.0270522 -0.292514
0.440001 0.0145673 -0.227196
0.378559 0.0199037 -0.168539
0.304671 0.0590377 -0.124233
0.227856 0.132547 -0.0948134
0.15872 0.20921 -0.0737804
0.104129 0.268732 -0.0574114
0.0661489 0.288475 -0.0429987
0.0414782 0.257517 -0.0297834
0.203113 0.052355 0.226876
0.229684 0.031171 0.285435
0.243646 -0.0104256 0.307482
0.250746 -0.0640087 0.28204
0.257869 -0.11384 0.205803
0.272095 -0.140139 0.0819591
0.299758 -0.133325 -0.0626876
0.343117 -0.0949568 -0.204095
0.396367 -0.039513 -0.3199
0.447105 0.0157313 -0.388861
0.482425 0.0523966 -0.407141
0.493504 0.0644832 -0.382185
0.474308 0.0593041 -0.32949
0.426166 0.0554914 -0.266465
0.359462 0.0672767 -0.20872
0.285691 0.107507 -0.165091
0.21462 0.175379 -0.136841
0.155035 0.241602 -0.116784
0.111413 0.287896 -0.099678
0.0831137 0.295711 -0.0818487
0.0647299 0.257257 -0.0618834
0.205606 0.0322257 0.180204
0.236738 0.0158538 0.227796
0.256515 -0.01542 0.246962
0.26792 -0.0561731 0.226607
0.275629 -0.0935841 0.163978
0.285498 -0.110966 0.0612483
0.30323 -0.0997769 -0.0612748
0.331128 -0.0623299 -0.183985
0.36569 -0.0112403 -0.286975
0.397872 0.0390407 -0.350849
0.418094 0.0736663 -0.371642
0.419 0.0880862 -0.354382
0.395707 0.0887528 -0.31157
0.349499 0.0910574 -0.258321
0.29023 0.106247 -0.208112
0.22839 0.143891 -0.169558
0.17194 0.202117 -0.144455
0.127759 0.254994 -0.126665
0.0987659 0.287216 -0.110767
0.0819346 0.284861 -0.0931186
0.0709987 0.243206 -0.0715222
0.0618557 0.0479662 0.136038
0.0480338 -0.00175267 0.165338
0.0297348 -0.0784749 0.177574
0.0140797 -0.163402 0.169338
0.00567047 -0.229642 0.138467
0.00681053 -0.251446 0.0841056
0.0165896 -0.205747 0.0121796
0.0335265 -0.0929731 -0.0671536
0.0546284 0.0624544 -0.141057
0.0748407 0.221405 -0.193527
0.092351 0.341371 -0.213286
0.106375 0.38972 -0.195349
0.11665 0.354299 -0.144847
0.124719 0.248387 -0.07638
0.133012 0.106995 -0.00905901
0.141923 -0.0270824 0.0390309
0.14982 -0.121891 0.0571067
0.153041 -0.161754 0.0496796
0.149867 -0.151598 0.0221432
0.138357 -0.109455 -0.00891486
0.117964 -0.0569904 -0.0310766
0.0995473 0.0837074 0.159031
0.0848383 0.0329917 0.188227
0.0588029 -0.0545907 0.196166
0.028811 -0.157137 0.180755
0.00112328 -0.243369 0.140818
-0.0177758 -0.281231 0.074948
-0.0249343 -0.241353 -0.00981901
-0.0179257 -0.121142 -0.101577
0.00261342 0.0533321 -0.184736
0.0320187 0.237362 -0.240014
0.0658507 0.379622 -0.252634
0.0988345 0.439659 -0.216116
0.1254 0.401344 -0.137486
0.143443 0.279901 -0.0365934
0.153136 0.116314 0.0598438
0.154891 -0.0380755 0.126878
0.149405 -0.144777 0.149232
0.136302 -0.18503 0.132878
0.117682 -0.165111 0.0870827
0.0951833 -0.108544 0.0344487
0.0705595 -0.0440603 -0.00628965
0.143016 0.116516 0.157843
0.131387 0.0714746 0.179956
0.101117 -0.0188491 0.178639
0.0584691 -0.131767 0.154866
0.0108222 -0.233778 0.109533
-0.0318009 -0.288385 0.040466
-0.0616998 -0.260871 -0.0448294
-0.0715478 -0.143995 -0.135149
-0.0585178 0.0374861 -0.2149
-0.0262469 0.236344 -0.263738
0.0186762 0.394794 -0.264729
0.0658921 0.465615 -0.209964
0.104317 0.4283 -0.107133
0.126826 0.29811 0.0205261
0.130831 0.119611 0.141287
0.117892 -0.0492273 0.224467
0.0914495 -0.164242 0.251228
0.0569324 -0.204015 0.226982
0.0217695 -0.175914 0.165316
-0.00846296 -0.108009 0.0932743
-0.0298368 -0.0347325 0.0340335
0.19159 0.13493 0.134447
0.188457 0.100226 0.144155
0.160124 0.0159695 0.131659
0.111185 -0.0969909 0.101548
0.0487106 -0.20623 0.0564019
-0.0146931 -0.273203 -0.00518874
-0.0673356 -0.260118 -0.0779704
-0.0979415 -0.155071 -0.153668
-0.100089 0.02133 -0.220404
-0.0753643 0.22301 -0.25872
-0.0317015 0.389093 -0.251037
0.0167796 0.46765 -0.18759
0.0550595 0.434101 -0.0744647
0.0725901 0.302156 0.0648122
0.0633425 0.117509 0.197926
0.0307464 -0.0587554 0.290985
-0.0183684 -0.178531 0.322158
-0.0731847 -0.218268 0.294157
-0.121707 -0.185851 0.225459
-0.15424 -0.111491 0.143249
-0.165488 -0.0332296 0.0724695
0.240794 0.127623 0.0926185
0.252177 0.105264 0.0876922
0.234804 0.0354837 0.0656247
0.190299 -0.065942 0.0339704
0.124271 -0.170388 -0.00226983
0.049523 -0.241125 -0.0448193
-0.0200903 -0.239913 -0.092473
-0.0710277 -0.151121 -0.143613
-0.0939835 0.0106576 -0.192078
-0.0880957 0.204114 -0.222124
-0.0609103 0.369001 -0.216651
-0.0276052 0.4513 -0.163201
-0.00429969 0.423163 -0.0631807
-0.0026653 0.295411 0.0642193
-0.0306378 0.112427 0.190867
-0.0840895 -0.0652588 0.284052
-0.153619 -0.187135 0.320121