# vtk DataFile Version 2.0
Func
ASCII
DATASET RECTILINEAR_GRID
DIMENSIONS 21 21 21
X_COORDINATES 21 double
-4.7619
-4.28571
-3.80952
-3.33333
-2.85714
-2.38095
-1.90476
-1.42857
-0.952381
-0.47619
0
0.47619
0.952381
1.42857
1.90476
2.38095
2.85714
3.33333
3.80952
4.28571
4.7619
Y_COORDINATES 21 double
-4.7619
-4.28571
-3.80952
-3.33333
-2.85714
-2.38095
-1.90476
-1.42857
-0.952381
-0.47619
0
0.47619
0.952381
1.42857
1.90476
2.38095
2.85714
3.33333
3.80952
4.28571
4.7619
Z_COORDINATES 21 double
-4.7619
-4.28571
-3.80952
-3.33333
-2.85714
-2.38095
-1.90476
-1.42857
-0.952381
-0.47619
0
0.47619
0.952381
1.42857
1.90476
2.38095
2.85714
3.33333
3.80952
4.28571
4.7619
POINT_DATA 9261
SCALARS data double 3
LOOKUP_TABLE default
0.088247 0.123475 -0.169129
0.100149 0.139324 -0.164909
0.0983225 0.121466 -0.118873
0.0829123 0.0662284 -0.0405365
0.0546987 -0.0179335 0.045118
0.0174997 -0.118384 0.110672
-0.0223119 -0.206868 0.125961
-0.0597772 -0.265172 0.089439
-0.0898225 -0.282901 0.0180625
-0.109711 -0.259766 -0.0661745
-0.119736 -0.211333 -0.136185
-0.121163 -0.158808 -0.175496
-0.11644 -0.122681 -0.182644
-0.107219 -0.116982 -0.170621
-0.0916557 -0.142614 -0.155221
-0.0671139 -0.191462 -0.152436
-0.0350906 -0.246577 -0.168233
0.00153739 -0.285801 -0.190427
0.0385197 -0.292826 -0.204662
0.0700144 -0.267012 -0.198353
0.0898964 -0.212733 -0.167206
0.0550228 0.161698 -0.227238
0.0676468 0.186009 -0.225423
0.0683453 0.16552 -0.170371
0.0533339 0.0966973 -0.0766768
0.0215803 -0.0101667 0.0257781
-0.0211894 -0.133598 0.106227
-0.0677084 -0.237455 0.125582
-0.111201 -0.300756 0.0815325
-0.145829 -0.314142 -0.00453705
-0.166155 -0.280454 -0.105027
-0.172627 -0.221833 -0.187312
-0.16678 -0.165147 -0.23139
-0.152361 -0.133627 -0.235916
-0.132304 -0.140503 -0.217205
-0.105442 -0.182147 -0.195318
-0.070111 -0.244807 -0.190823
-0.0284518 -0.307111 -0.211277
0.0155482 -0.34483 -0.239342
0.0578101 -0.343248 -0.259439
0.0922574 -0.303992 -0.254687
0.112331 -0.235407 -0.218483
-0.0122217 0.201909 -0.261267
-0.00639107 0.233722 -0.261108
-0.00741606 0.210324 -0.204323
-0.0220163 0.128275 -0.108385
-0.0521708 0.000922837 -0.00461148
-0.0925448 -0.141161 0.0762169
-0.136265 -0.255157 0.092545
-0.176004 -0.318165 0.04228
-0.205113 -0.323491 -0.0505908
-0.217529 -0.279392 -0.154982
-0.213592 -0.214721 -0.236521
-0.195672 -0.16113 -0.27479
-0.16852 -0.142648 -0.27002
-0.136577 -0.168866 -0.241491
-0.0993491 -0.229924 -0.212414
-0.0558612 -0.305009 -0.20623
-0.00913655 -0.368907 -0.231151
0.036486 -0.397278 -0.264982
0.0781721 -0.380473 -0.291464
0.110472 -0.324295 -0.290703
0.127138 -0.241935 -0.253644
-0.0960335 0.239326 -0.256072
-0.102002 0.275464 -0.256418
-0.109393 0.248078 -0.205118
-0.124545 0.155438 -0.121567
-0.150399 0.012884 -0.0329755
-0.182087 -0.140975 0.0307476
-0.214052 -0.258266 0.033561
-0.240179 -0.316205 -0.024289
-0.253839 -0.311876 -0.117441
-0.249635 -0.259462 -0.214311
-0.229048 -0.193711 -0.282296
-0.195841 -0.149536 -0.30384
-0.155646 -0.149886 -0.282386
-0.11379 -0.198908 -0.240054
-0.0706188 -0.279553 -0.201825
-0.0251385 -0.364064 -0.192445
0.0201315 -0.424444 -0.219718
0.0609896 -0.43794 -0.258757
0.0961938 -0.402219 -0.2917
0.121428 -0.327574 -0.296579
0.132011 -0.233087 -0.263085
-0.175012 0.267755 -0.204006
-0.195586 0.303632 -0.202394
-0.212418 0.271945 -0.162761
-0.229401 0.172719 -0.102918
-0.247801 0.024048 -0.0473943
-0.265404 -0.132171 -0.0182531
-0.278183 -0.244951 -0.0392429
-0.281847 -0.293451 -0.105846
-0.271684 -0.279464 -0.193307
-0.245087 -0.222476 -0.272404
-0.205476 -0.161305 -0.31612
-0.158091 -0.132032 -0.312873
-0.108921 -0.154841 -0.27043
-0.0631694 -0.227453 -0.212966
-0.0214026 -0.325759 -0.165554
0.0179422 -0.416233 -0.151565
0.0534587 -0.469291 -0.177766
0.0825612 -0.465286 -0.218872
0.105467 -0.409371 -0.256783
0.119846 -0.317127 -0.26772
0.122774 -0.213027 -0.24139
-0.226103 0.283612 -0.107461
-0.257951 0.316722 -0.0997162
-0.283107 0.281334 -0.0757384
-0.301738 0.180466 -0.0505567
-0.313281 0.0337079 -0.0407749
-0.316259 -0.115704 -0.0583736
-0.308112 -0.217164 -0.10916
-0.286802 -0.252983 -0.183991
-0.250785 -0.229804 -0.260916
-0.201492 -0.1716 -0.315643
-0.14484 -0.119357 -0.330115
-0.0876311 -0.108474 -0.300539
-0.0359381 -0.155175 -0.238805
0.00585717 -0.250508 -0.169063
0.0376853 -0.364114 -0.114412
0.0623743 -0.457978 -0.0942656
0.0806861 -0.50211 -0.113618
0.0920614 -0.48043 -0.150109
0.0986754 -0.405688 -0.187493
0.100111 -0.298488 -0.203295
0.0954243 -0.188024 -0.188062
-0.233656 0.28342 0.00771255
-0.269959 0.312211 0.0238974
-0.299635 0.275093 0.0335715
-0.318572 0.178444 0.025242
-0.324127 0.0419383 -0.0089829
-0.315204 -0.0923954 -0.0712337
-0.290432 -0.177664 -0.150098
-0.24969 -0.199945 -0.232418
-0.193961 -0.169397 -0.299455
-0.12883 -0.113251 -0.332727
-0.06237 -0.0725349 -0.323055
-0.0025895 -0.0804066 -0.273524
0.0445458 -0.148775 -0.198711
0.0757253 -0.262978 -0.121193
0.0917071 -0.388295 -0.0608537
0.096275 -0.483881 -0.0326437
0.092815 -0.52031 -0.040313
0.0836101 -0.484895 -0.0667576
0.0724789 -0.396047 -0.0988911
0.0612779 -0.278896 -0.117124
0.0509245 -0.165336 -0.113866
-0.203869 0.266905 0.118639
-0.23884 0.291773 0.142801
-0.269292 0.256783 0.140684
-0.287932 0.170218 0.104499
-0.290046 0.0514676 0.0345681
-0.274123 -0.0618364 -0.0631795
-0.239571 -0.129063 -0.163466
-0.186954 -0.139081 -0.250074
-0.119793 -0.104668 -0.307525
-0.047096 -0.0541627 -0.323231
0.0213299 -0.0263935 -0.295839
0.0766739 -0.0510722 -0.233703
0.113216 -0.136161 -0.152535
0.128861 -0.263164 -0.072299
0.125271 -0.395405 -0.00893699
0.107805 -0.491833 0.0269892
0.0818789 -0.523838 0.0323984
0.0529127 -0.481514 0.0177833
0.0264166 -0.385601 -0.00635851
0.0059877 -0.264667 -0.0249067
-0.00605797 -0.151516 -0.0327928
-0.155131 0.237182 0.204549
-0.185777 0.258897 0.234759
-0.214834 0.230649 0.224092
-0.233433 0.159936 0.16831
-0.235403 0.0641823 0.0743268
-0.217937 -0.0255868 -0.0457125
-0.180493 -0.0756423 -0.15704
-0.124071 -0.0772677 -0.241823
-0.0541728 -0.0438311 -0.288048
0.0179648 -0.00234121 -0.288536
0.0814525 0.0125985 -0.248516
0.127179 -0.0245981 -0.180036
0.149918 -0.118997 -0.0987686
0.148845 -0.25084 -0.0214691
0.126524 -0.384308 0.0401952
0.0897825 -0.480641 0.0799398
0.0459849 -0.512643 0.0953222
0.00297187 -0.471647 0.0903562
-0.0329934 -0.377805 0.0734958
-0.0573281 -0.260169 0.0556527
-0.0664951 -0.15047 0.0391958
-0.107258 0.201608 0.251369
-0.133368 0.222895 0.284986
-0.16119 0.204878 0.270274
-0.181364 0.153013 0.205054
-0.186832 0.081149 0.101083
-0.173016 0.0131456 -0.024991
-0.139135 -0.0238073 -0.134843
-0.0861653 -0.0222816 -0.21078
-0.0208813 0.0057213 -0.24416
0.0446343 0.0364246 -0.232133
0.0991148 0.0405138 -0.184711
0.133588 -0.00359736 -0.1159
0.143446 -0.0994713 -0.0404286
0.128926 -0.228507 0.028283
0.0934448 -0.358033 0.0826116
0.0449334 -0.453399 0.11988
-0.00804105 -0.489051 0.138512
-0.0562645 -0.456153 0.1382
-0.0934628 -0.372018 0.125768
-0.115093 -0.264275 0.108383
-0.117423 -0.160897 0.0864893
-0.078033 0.169264 0.260408
-0.103135 0.193314 0.295019
-0.132437 0.188191 0.280485
-0.156921 0.155585 0.215328
-0.169029 0.104974 0.113828
-0.162429 0.0534714 -0.00477931
-0.136062 0.0230234 -0.103293
-0.0906271 0.0210258 -0.165404
-0.0335645 0.0386519 -0.185316
0.0232567 0.0569306 -0.163004
0.0687455 0.0522923 -0.111488
0.0943508 0.00663033 -0.045544
0.0961014 -0.0835518 0.0211834
0.0749923 -0.202887 0.0779617
0.0352156 -0.32364 0.12018
-0.0147723 -0.416532 0.147683
-0.0661438 -0.457818 0.160322
-0.109655 -0.437376 0.156825
-0.139742 -0.368289 0.143329
-0.152927 -0.274857 0.124616
-0.146323 -0.180077 0.100421
-0.0722965 0.148158 0.243873
-0.101018 0.178523 0.278626
-0.135268 0.18751 0.267869
-0.16667 0.172307 0.209718
-0.187338 0.137868 0.118818
-0.189617 0.0956285 0.0153907
-0.172199 0.0640013 -0.0670898
-0.135433 0.051504 -0.114166
-0.0868992 0.0538886 -0.122015
-0.0376906 0.058053 -0.0919156
0.00167051 0.0460738 -0.0383679
0.0232465 0.00264219 0.0237218
0.0236322 -0.0768139 0.0814145
0.00419351 -0.181529 0.125601
-0.0302254 -0.289744 0.153211
-0.0713298 -0.378097 0.16529
-0.110997 -0.424831 0.163631
-0.141299 -0.417872 0.149419
-0.157957 -0.365836 0.128955
-0.159376 -0.288366 0.106261
-0.144352 -0.202928 0.081894
-0.0823298 0.142237 0.217748
-0.117415 0.18146 0.253121
-0.158391 0.204145 0.248462
-0.197446 0.203048 0.200891
-0.22649 0.178985 0.123776
-0.237259 0.139039 0.0369691
-0.228237 0.0996774 -0.0303583
-0.199414 0.0712556 -0.0653192
-0.157984 0.0547702 -0.0649998
-0.114012 0.0433594 -0.030651
-0.0771286 0.0242708 0.0231718
-0.0544708 -0.015551 0.0818549
-0.0489998 -0.0822549 0.13265
-0.0594159 -0.170054 0.166919
-0.080573 -0.263316 0.181461
-0.105074 -0.344463 0.177048
-0.126326 -0.394025 0.157399
-0.138742 -0.39804 0.128255
-0.139649 -0.361499 0.0965618
-0.129666 -0.298866 0.0670825
-0.10961 -0.222603 0.0426946
-0.0932402 0.150828 0.194607
-0.133288 0.200084 0.231188
-0.179043 0.234497 0.232891
-0.223111 0.243544 0.195867
-0.257514 0.224646 0.131295
-0.2743 0.181759 0.0575066
-0.271814 0.130549 0.000201707
-0.24965 0.0834605 -0.0285988
-0.214044 0.0465206 -0.0257429
-0.17382 0.0187911 0.00864524
-0.13727 -0.00799061 0.0612923
-0.110443 -0.0449621 0.118317
-0.0959492 -0.0997468 0.16682
-0.0929888 -0.171 0.197594
-0.0967501 -0.24855 0.205642
-0.101485 -0.319895 0.189984
-0.102668 -0.368182 0.155434
-0.0975359 -0.37816 0.112127
-0.0850954 -0.352748 0.0679042
-0.067835 -0.30166 0.0294834
-0.0483531 -0.233259 0.00294962
-0.0926167 0.16873 0.179686
-0.132832 0.227479 0.217313
-0.178226 0.270993 0.223615
-0.221848 0.286497 0.194396
-0.256331 0.269267 0.138571
-0.274915 0.221 0.07226
-0.276008 0.157127 0.0187052
-0.258688 0.0919132 -0.0103072
-0.227801 0.0354573 -0.0105225
-0.190755 -0.00813845 0.0197186
-0.154147 -0.0434718 0.0695688
-0.122706 -0.0799607 0.126556
-0.0988045 -0.126165 0.1778
-0.0824885 -0.183981 0.212914
-0.0699951 -0.247362 0.223885
-0.0577067 -0.307659 0.20662
-0.0433499 -0.350664 0.165602
-0.0265193 -0.360748 0.113591
-0.00753155 -0.340465 0.0589894
0.0101707 -0.295704 0.0106923
0.0231952 -0.232402 -0.0211899
-0.0740714 0.187186 0.171399
-0.107243 0.253192 0.208242
-0.144554 0.302879 0.21604
-0.18025 0.32239 0.190472
-0.208307 0.305477 0.138521
-0.223566 0.252667 0.0740436
-0.224506 0.178948 0.0185373
-0.210064 0.0996312 -0.016034
-0.183286 0.0274145 -0.0237412
-0.149873 -0.0298969 -0.000768657
-0.1145 -0.0741651 0.0453312
-0.0805006 -0.113166 0.104302
-0.0500763 -0.155563 0.163771
-0.024297 -0.204997 0.211933
-0.00117702 -0.257839 0.236988
0.0205211 -0.307687 0.230919
0.041582 -0.342958 0.195997
0.060721 -0.348506 0.143943
0.0768427 -0.327116 0.0832111
0.0870467 -0.282877 0.0252005
0.0885517 -0.221585 -0.0166029
-0.0392426 0.199065 0.162615
-0.0586948 0.26861 0.195457
-0.080846 0.321091 0.200644
-0.101862 0.342679 0.174605
-0.117769 0.326311 0.122743
-0.125147 0.271714 0.0568889
-0.12284 0.193118 -0.00322622
-0.10955 0.105907 -0.0454757
-0.0867941 0.0237314 -0.0622325
-0.0581502 -0.0434807 -0.0475381
-0.0262902 -0.0957413 -0.00523488
0.00684143 -0.139254 0.0573005
0.0391745 -0.181981 0.128898
0.0685731 -0.227865 0.196574
0.0946439 -0.274011 0.244753
0.11675 -0.315077 0.261336
0.13454 -0.341692 0.244608
0.146283 -0.339816 0.20124
0.150936 -0.312766 0.139856
0.147296 -0.264919 0.0734229
0.134667 -0.203148 0.0184071
-0.000908967 0.19869 0.146219
-0.00403416 0.267198 0.17169
-0.0081231 0.319153 0.171349
-0.0116581 0.341566 0.142756
-0.0130451 0.327193 0.0906131
-0.0106393 0.275096 0.024628
-0.00380443 0.198045 -0.0379598
0.00884531 0.110485 -0.0852806
0.0270914 0.0254268 -0.10861
0.049658 -0.0466542 -0.100629
0.0757378 -0.104655 -0.0619169
0.104571 -0.153249 0.00304706
0.13418 -0.199002 0.0848353
0.161507 -0.244984 0.169983
0.183738 -0.287846 0.240862
0.198815 -0.3223 0.282203
0.206063 -0.340706 0.287782
0.204631 -0.330472 0.258071
0.193798 -0.296108 0.201244
0.17505 -0.243184 0.131716
0.150367 -0.180046 0.0664878
0.0281594 0.184457 0.117984
0.0398048 0.247388 0.133885
0.052492 0.295783 0.127581
0.0656085 0.317809 0.0972302
0.0784129 0.306834 0.0473463
0.0909188 0.261054 -0.014066
0.102893 0.19145 -0.0733555
0.115396 0.110504 -0.12013
0.129222 0.0295318 -0.145507
0.145052 -0.0417796 -0.141777
0.163623 -0.101847 -0.107077
0.185165 -0.153993 -0.0431592
0.207986 -0.203069 0.0427765
0.228593 -0.25066 0.137978
0.242536 -0.292386 0.224527
0.246832 -0.322382 0.285255
0.241203 -0.33417 0.31068
0.225868 -0.317139 0.29511
0.201045 -0.276441 0.247194
0.170366 -0.219193 0.179621
0.138358 -0.155107 0.108855
0.0403342 0.158665 0.083869
0.0614274 0.212778 0.0904103
0.0853991 0.255346 0.0795155
0.110223 0.276256 0.0497996
0.133308 0.269588 0.00551222
0.153588 0.232827 -0.046889
0.16981 0.174845 -0.0976849
0.182451 0.105626 -0.138685
0.192989 0.0341661 -0.162036
0.203365 -0.0314671 -0.160501
0.215199 -0.0896119 -0.13081
0.229251 -0.142452 -0.0725917
0.244104 -0.193123 0.00927494
0.256355 -0.241651 0.103951
0.260672 -0.282574 0.194526
0.254059 -0.309494 0.264139
0.236558 -0.316751 0.301609
0.20997 -0.295626 0.297943
0.175913 -0.25183 0.26014
0.139291 -0.193495 0.199183
0.105988 -0.130809 0.129842
0.0362969 0.124855 0.0503448
0.0599312 0.169022 0.0502021
0.0874207 0.205141 0.0378804
0.116338 0.224547 0.0124213
0.143317 0.22197 -0.0225293
0.166606 0.194628 -0.0622101
0.184522 0.149426 -0.100634
0.196864 0.0938383 -0.131949
0.205158 0.0346761 -0.150309
0.211661 -0.0218326 -0.1497
0.21818 -0.0741192 -0.126532
0.225518 -0.123471 -0.0791988
0.232745 -0.171685 -0.0105084
0.236939 -0.217888 0.0713914
0.233412 -0.25617 0.152286
0.219343 -0.280056 0.217333
0.195599 -0.284805 0.256014
0.164763 -0.26329 0.259266
0.129193 -0.221004 0.231715
0.0942115 -0.166523 0.181994
0.0660466 -0.108918 0.122719
0.0823332 0.149969 -0.221929
0.0891943 0.166486 -0.213527
0.0827283 0.13861 -0.147412
0.0642501 0.0632947 -0.0386729
0.0367192 -0.0478623 0.0795787
0.00379444 -0.177527 0.171769
-0.0284885 -0.288348 0.198806
-0.0566194 -0.356885 0.157305
-0.0776906 -0.371054 0.0681982
-0.0916143 -0.331364 -0.0401627
-0.100321 -0.258678 -0.131791
-0.104806 -0.181199 -0.184291
-0.106557 -0.12571 -0.194747
-0.105179 -0.110165 -0.179611
-0.0966395 -0.136192 -0.158971
-0.0768258 -0.193189 -0.154017
-0.0461839 -0.259935 -0.173672
-0.00792796 -0.309043 -0.203548
0.0329303 -0.322265 -0.225612
0.0690463 -0.297362 -0.223355
0.0929793 -0.239333 -0.190931
0.0342623 0.188333 -0.288114
0.0406624 0.21364 -0.281965
0.0364335 0.182096 -0.204752
0.0189079 0.0905797 -0.0781098
-0.0108681 -0.0471322 0.0585964
-0.0477082 -0.203724 0.166164
-0.0851236 -0.33248 0.195338
-0.117902 -0.40651 0.142377
-0.142489 -0.414944 0.0338155
-0.15594 -0.361875 -0.094492
-0.160291 -0.275742 -0.19991
-0.156438 -0.19155 -0.255998
-0.147026 -0.139605 -0.260544
-0.13279 -0.137196 -0.234756
-0.110643 -0.180969 -0.204522
-0.0778583 -0.253733 -0.197071
-0.0359766 -0.328876 -0.22321
0.0103526 -0.376556 -0.261853
0.0560087 -0.380011 -0.292506
0.0939091 -0.339567 -0.293023
0.116708 -0.264705 -0.254117
-0.052633 0.22773 -0.317909
-0.054724 0.259956 -0.314062
-0.0610358 0.224355 -0.237235
-0.077451 0.117533 -0.112351
-0.104298 -0.0430639 0.0201878
-0.137355 -0.220357 0.122107
-0.171224 -0.360222 0.142403
-0.199929 -0.433413 0.0785338
-0.218612 -0.432011 -0.0393672
-0.223391 -0.366255 -0.171082
-0.215514 -0.272199 -0.27253
-0.196715 -0.190422 -0.317534
-0.170745 -0.152352 -0.306695
-0.140279 -0.171318 -0.265572
-0.103537 -0.236878 -0.224527
-0.0593341 -0.32361 -0.21442
-0.0104163 -0.40039 -0.246626
0.0379508 -0.437326 -0.293657
0.082006 -0.423058 -0.333352
0.115832 -0.362711 -0.339365
0.133189 -0.271325 -0.299012
-0.155127 0.262955 -0.296553
-0.170885 0.297578 -0.294143
-0.184266 0.256356 -0.228366
-0.200805 0.137696 -0.125121
-0.222448 -0.0384951 -0.0186621
-0.246166 -0.227229 0.0547009
-0.26817 -0.369069 0.0524559
-0.283736 -0.435376 -0.0241357
-0.287432 -0.422356 -0.142605
-0.275159 -0.34705 -0.262911
-0.248645 -0.251957 -0.343989
-0.211179 -0.181154 -0.364147
-0.167621 -0.164711 -0.328804
-0.122125 -0.20969 -0.267616
-0.074819 -0.297291 -0.213366
-0.0250104 -0.394232 -0.198633
0.024456 -0.466106 -0.233889
0.0683216 -0.485164 -0.287926
0.104654 -0.448111 -0.336055
0.129346 -0.365628 -0.349258
0.138565 -0.259438 -0.312791
-0.246338 0.288655 -0.218763
-0.278087 0.319912 -0.215452
-0.301473 0.27224 -0.169131
-0.319707 0.146274 -0.10193
-0.33378 -0.0349409 -0.0431234
-0.34378 -0.223749 -0.0190602
-0.347607 -0.358078 -0.0556133
-0.342307 -0.411848 -0.14506
-0.323663 -0.386968 -0.25588
-0.289443 -0.306591 -0.351948
-0.242698 -0.217532 -0.399842
-0.188412 -0.164814 -0.386033
-0.132084 -0.174982 -0.321824
-0.0783718 -0.24745 -0.239665
-0.0285846 -0.355087 -0.172499
0.0179117 -0.458009 -0.151174
0.0590584 -0.52005 -0.184653
0.091207 -0.517433 -0.240964
0.114206 -0.455484 -0.295155
0.12654 -0.351486 -0.315818
0.126907 -0.233592 -0.288101
-0.30023 0.300925 -0.0918586
-0.342653 0.326123 -0.0827415
-0.373659 0.272928 -0.0602847
-0.393122 0.145376 -0.0415186
-0.401001 -0.0314728 -0.0445528
-0.398178 -0.209762 -0.0825382
-0.383895 -0.328778 -0.158309
-0.356936 -0.366407 -0.258075
-0.315641 -0.330431 -0.354387
-0.26083 -0.249207 -0.417914
-0.197493 -0.171658 -0.42706
-0.13239 -0.141542 -0.378485
-0.0714164 -0.180396 -0.288822
-0.0190561 -0.279578 -0.19038
0.0230248 -0.40449 -0.113648
0.0563543 -0.51022 -0.0843405
0.0807634 -0.560168 -0.108837
0.0948447 -0.535237 -0.158852
0.100802 -0.449583 -0.211955
0.0994963 -0.326955 -0.238366
0.0920941 -0.201248 -0.224388
-0.299088 0.29693 0.0494423
-0.342995 0.315106 0.0668852
-0.376353 0.258832 0.0682078
-0.395084 0.136413 0.0421545
-0.398062 -0.0270348 -0.0176599
-0.386276 -0.186059 -0.111302
-0.359768 -0.284813 -0.220807
-0.318731 -0.306048 -0.327768
-0.263028 -0.261468 -0.409272
-0.196692 -0.183367 -0.443908
-0.126386 -0.120402 -0.4216
-0.0601571 -0.113337 -0.347726
-0.00402889 -0.1783 -0.242065
0.037993 -0.299665 -0.134532
0.064548 -0.437634 -0.0513254
0.0775403 -0.54402 -0.0124313
0.0795536 -0.583052 -0.0222285
0.0723676 -0.54003 -0.0590315
0.060297 -0.436099 -0.104947
0.0467321 -0.300709 -0.134012
0.0348339 -0.171316 -0.135003
-0.252625 0.277096 0.176709
-0.290832 0.290182 0.201627
-0.321942 0.236123 0.186171
-0.339345 0.125584 0.124726
-0.340375 -0.0167474 0.021908
-0.325227 -0.150795 -0.112264
-0.294381 -0.228465 -0.244198
-0.247706 -0.235725 -0.352327
-0.18684 -0.18713 -0.418595
-0.118395 -0.1164 -0.42946
-0.0504678 -0.0695283 -0.384834
0.00811808 -0.0830514 -0.296451
0.0514056 -0.168226 -0.184918
0.0761329 -0.304636 -0.0761458
0.0815955 -0.45014 0.00907002
0.0710181 -0.556245 0.0565634
0.0490179 -0.588154 0.0629954
0.0212092 -0.53504 0.041734
-0.00596646 -0.421107 0.00659927
-0.0271474 -0.280477 -0.0223137
-0.0383737 -0.151765 -0.0372112
-0.185762 0.245451 0.266794
-0.215565 0.256007 0.296266
-0.242624 0.210464 0.268928
-0.259391 0.118425 0.184376
-0.262192 0.00221441 0.0553414
-0.249282 -0.105412 -0.100773
-0.220609 -0.164265 -0.240351
-0.175743 -0.162987 -0.340928
-0.117784 -0.116538 -0.389646
-0.0549638 -0.0572084 -0.38005
0.00360919 -0.0261548 -0.320331
0.0488624 -0.0550738 -0.226379
0.0752508 -0.151682 -0.117902
0.080502 -0.293784 -0.0158816
0.064851 -0.440236 0.0648436
0.032934 -0.545074 0.115863
-0.00840123 -0.575192 0.134805
-0.0506554 -0.52173 0.126616
-0.0862817 -0.40894 0.101625
-0.109027 -0.271727 0.0744568
-0.114375 -0.147626 0.0490624
-0.124289 0.209837 0.306376
-0.146922 0.222519 0.337129
-0.171155 0.190455 0.304077
-0.189501 0.12078 0.209628
-0.197575 0.0313168 0.0723182
-0.191306 -0.0527695 -0.0852075
-0.169919 -0.0984062 -0.216743
-0.132471 -0.0954644 -0.301176
-0.0830632 -0.0569458 -0.330615
-0.0304307 -0.0113988 -0.304278
0.015865 0.00599935 -0.236386
0.0469469 -0.0318673 -0.144769
0.0578739 -0.13088 -0.0471015
0.0473039 -0.269907 0.0407663
0.0165419 -0.41155 0.109769
-0.0286126 -0.514432 0.156515
-0.0798385 -0.547394 0.179819
-0.126993 -0.501811 0.178862
-0.162344 -0.399522 0.160936
-0.17992 -0.273919 0.135693
-0.175619 -0.157987 0.104261
-0.0895867 0.179978 0.301169
-0.11069 0.199299 0.330365
-0.136413 0.184558 0.297008
-0.159802 0.138204 0.204352
-0.175876 0.0724928 0.0737573
-0.178494 0.00565951 -0.0694701
-0.16631 -0.034661 -0.181965
-0.137963 -0.0380743 -0.24532
-0.0981797 -0.0135264 -0.255734
-0.0554393 0.0160909 -0.216133
-0.0192897 0.0220819 -0.144515
0.00184341 -0.0187293 -0.059229
0.00367735 -0.112087 0.0241317
-0.0143738 -0.240341 0.0939357
-0.049915 -0.371954 0.14558
-0.096521 -0.471566 0.179364
-0.145482 -0.510165 0.195894
-0.186663 -0.477963 0.192762
-0.213122 -0.392832 0.175591
-0.220285 -0.284333 0.150736
-0.205356 -0.17944 0.118011
-0.0863712 0.164591 0.269277
-0.112505 0.195003 0.296443
-0.144548 0.199286 0.267377
-0.17599 0.174319 0.184615
-0.201233 0.126625 0.0696963
-0.212815 0.0687355 -0.0515296
-0.209085 0.0248922 -0.141147
-0.18853 0.00712072 -0.183737
-0.156153 0.0120945 -0.178225
-0.119896 0.0238503 -0.1293
-0.0888887 0.0200402 -0.0568125
-0.0709017 -0.0194118 0.0210457
-0.0695956 -0.101498 0.0900807
-0.0850622 -0.21367 0.141404
-0.113914 -0.331451 0.17299
-0.149801 -0.426079 0.187186
-0.184834 -0.470852 0.186961
-0.210594 -0.453861 0.172609
-0.221799 -0.388629 0.14941
-0.216156 -0.299309 0.122394
-0.192761 -0.206135 0.0919464
-0.103164 0.167095 0.231437
-0.137894 0.211227 0.258165
-0.178412 0.233879 0.236614
-0.218338 0.226518 0.167749
-0.251535 0.19051 0.0713024
-0.270239 0.134045 -0.0279999
-0.27275 0.0797017 -0.0977994
-0.257636 0.0418856 -0.124988
-0.229732 0.0235252 -0.109676
-0.196322 0.0159842 -0.056632
-0.165685 0.00274117 0.0142527
-0.14463 -0.0338119 0.0853267
-0.136249 -0.102507 0.142949
-0.140447 -0.196356 0.179379
-0.153233 -0.298055 0.193053
-0.16912 -0.385274 0.186536
-0.182166 -0.433937 0.165117
-0.187039 -0.429892 0.13448
-0.180745 -0.383065 0.100416
-0.163655 -0.311612 0.0683867
-0.136844 -0.22962 0.0411658
-0.119635 0.185952 0.202268
-0.160872 0.244604 0.230515
-0.207053 0.282937 0.217452
-0.251773 0.288528 0.162418
-0.288814 0.258616 0.0822315
-0.311243 0.198213 -0.000833774
-0.317532 0.12934 -0.0585219
-0.306367 0.0690001 -0.0789044
-0.281808 0.0259765 -0.0617104
-0.250214 -0.00146818 -0.0103982
-0.218337 -0.024766 0.0568137
-0.191503 -0.0594147 0.123254
-0.172201 -0.115966 0.175244
-0.16045 -0.192397 0.204753
-0.152374 -0.277684 0.208596
-0.144182 -0.355123 0.18775
-0.132693 -0.403596 0.148821
-0.116422 -0.407201 0.102745
-0.0950084 -0.37375 0.0564098
-0.0712171 -0.315981 0.0171074
-0.0476723 -0.242988 -0.00906486
-0.119513 0.21389 0.186533
-0.160709 0.285729 0.217505
-0.205627 0.336202 0.21173
-0.248099 0.350352 0.167631
-0.282639 0.322951 0.09897
-0.304006 0.256561 0.0248899
-0.31121 0.173029 -0.0290539
-0.302842 0.0915704 -0.0511665
-0.281681 0.025573 -0.0396545
-0.252822 -0.0209068 0.00424163
-0.220917 -0.0550944 0.0654632
-0.189348 -0.0905566 0.129126
-0.159972 -0.138925 0.181636
-0.13318 -0.201784 0.21377
-0.106004 -0.272716 0.219192
-0.0768683 -0.339283 0.195609
-0.0457048 -0.383287 0.149129
-0.0144187 -0.388039 0.0940549
0.0150006 -0.360921 0.037999
0.03823 -0.310359 -0.0099279
0.0522057 -0.242603 -0.0391636
-0.0938869 0.24021 0.180422
-0.125662 0.321928 0.21296
-0.159505 0.380741 0.211755
-0.190906 0.40063 0.174353
-0.215918 0.374453 0.111659
-0.231427 0.303603 0.0399099
-0.236765 0.209268 -0.0172211
-0.230756 0.111867 -0.0477759
-0.214389 0.0276514 -0.0476939
-0.190928 -0.0351297 -0.0154028
-0.162532 -0.0804902 0.0383294
-0.130389 -0.120088 0.101442
-0.0956711 -0.165655 0.161046
-0.0592717 -0.220719 0.206327
-0.0199451 -0.281408 0.22682
0.0214271 -0.337732 0.215833
0.0626384 -0.374547 0.176885
0.0990456 -0.375231 0.123112
0.126785 -0.347034 0.062079
0.14164 -0.296693 0.00516829
0.141419 -0.230275 -0.0333778
-0.0457242 0.255938 0.173248
-0.0596743 0.342386 0.203932
-0.0739241 0.405132 0.202887
-0.0865952 0.428345 0.167839
-0.0962918 0.403865 0.107051
-0.101901 0.332132 0.0343036
-0.103453 0.233196 -0.0287947
-0.0995295 0.127475 -0.0700553
-0.0897132 0.0321006 -0.0831692
-0.0747222 -0.0423376 -0.0636168
-0.0540601 -0.0975797 -0.0173407
-0.0266653 -0.143366 0.0472931
0.00698141 -0.190551 0.118986
0.0453987 -0.242996 0.185529
0.087431 -0.297327 0.232179
0.130374 -0.344931 0.247727
0.170094 -0.373182 0.230823
0.200842 -0.366291 0.188412
0.217983 -0.331725 0.12827
0.218511 -0.276624 0.0630389
0.202497 -0.208717 0.0101063
0.0065606 0.25438 0.156819
0.0130624 0.339511 0.181819
0.0210482 0.401879 0.177534
0.0293074 0.426775 0.142361
0.0364207 0.405743 0.0829676
0.0416341 0.338318 0.0105968
0.044307 0.242498 -0.0561254
0.0459403 0.137443 -0.105169
0.0482296 0.0392926 -0.128567
0.0531943 -0.0408255 -0.119643
0.0637076 -0.10315 -0.0800089
0.0826506 -0.155449 -0.0143156
0.110061 -0.206848 0.0682853
0.143836 -0.260235 0.154769
0.180314 -0.311413 0.228028
0.215543 -0.352096 0.273083
0.244636 -0.371751 0.282895
0.262578 -0.35601 0.257001
0.26451 -0.313132 0.202808
0.249958 -0.251675 0.134273
0.221568 -0.181537 0.0692574
0.0465406 0.233921 0.127499
0.0708451 0.311863 0.144319
0.0984286 0.369961 0.136073
0.125541 0.394922 0.101393
0.148187 0.378903 0.0457528
0.16412 0.320322 -0.0213707
0.171722 0.234649 -0.0855655
0.172337 0.138466 -0.136287
0.168462 0.0457486 -0.164819
0.164304 -0.0333551 -0.163356
0.164453 -0.0982497 -0.130179
0.172995 -0.154846 -0.0665192
0.19044 -0.210117 0.0210284
0.21436 -0.265328 0.119858
0.239506 -0.314934 0.212267
0.261071 -0.350313 0.280563
0.274933 -0.362594 0.313688
0.277375 -0.339574 0.303982
0.264545 -0.289705 0.259849
0.238095 -0.223179 0.192921
0.202944 -0.151903 0.120724
0.0638882 0.198268 0.0919558
0.098713 0.264787 0.100354
0.13832 0.315691 0.0890796
0.177553 0.339665 0.0568774
0.210704 0.329642 0.0082944
0.23474 0.283063 -0.0489459
0.247047 0.212472 -0.104928
0.248278 0.131157 -0.151255
0.241458 0.0502158 -0.179837
0.231952 -0.0220977 -0.182765
0.224974 -0.084809 -0.156312
0.224885 -0.142153 -0.0991344
0.232387 -0.1989 -0.0153158
0.245122 -0.254623 0.0843655
0.256918 -0.30245 0.182658
0.263369 -0.333629 0.261755
0.26127 -0.340513 0.308618
0.249298 -0.313216 0.311864
0.225438 -0.26027 0.278237
0.192794 -0.192759 0.217675
0.15739 -0.123487 0.146033
0.0585051 0.15287 0.0573817
0.0943991 0.206545 0.0597642
0.135627 0.249407 0.0481286
0.1772 0.271894 0.0216504
0.213097 0.267603 -0.0161489
0.239963 0.233408 -0.0597109
0.254974 0.179081 -0.103024
0.258022 0.114558 -0.14001
0.251865 0.0482109 -0.164364
0.241609 -0.013599 -0.16914
0.232003 -0.0698172 -0.150025
0.226712 -0.123236 -0.104338
0.226587 -0.176803 -0.0341274
0.229408 -0.229211 0.0525194
0.229805 -0.272895 0.140633
0.224029 -0.299539 0.214422
0.210618 -0.30298 0.261646
0.190017 -0.275423 0.27121
0.16173 -0.224775 0.247466
0.129936 -0.162279 0.198113
0.100811 -0.0994475 0.136988
0.0543185 0.161526 -0.274785
0.0541778 0.178067 -0.262141
0.0439166 0.144038 -0.175857
0.0264686 0.0557054 -0.0356709
0.0063098 -0.0735499 0.11752
-0.0126729 -0.221942 0.239073
-0.0260513 -0.345818 0.28045
-0.0335248 -0.418594 0.23589
-0.0367276 -0.426521 0.13001
-0.0390825 -0.370386 -0.00200089
-0.0440108 -0.274875 -0.115553
-0.052385 -0.173438 -0.181991
-0.0638626 -0.0978162 -0.19658
-0.0756642 -0.0695369 -0.178699
-0.0811519 -0.0911086 -0.153249
-0.0738881 -0.151162 -0.146637
-0.0532089 -0.225535 -0.170929
-0.021603 -0.283928 -0.209636
0.0159421 -0.306344 -0.24086
0.0517009 -0.288798 -0.244489
0.0773942 -0.235746 -0.212525
-0.00836736 0.195576 -0.344841
-0.0107924 0.218983 -0.333886
-0.0194978 0.179645 -0.235245
-0.0349742 0.0734423 -0.0762022
-0.0547457 -0.0837976 0.0952899
-0.0740291 -0.260282 0.231084
-0.088222 -0.402709 0.271635
-0.0963424 -0.48055 0.211427
-0.0998565 -0.481112 0.0817655
-0.0996388 -0.408865 -0.0729488
-0.0991059 -0.296373 -0.200558
-0.0987296 -0.184498 -0.268106
-0.0988024 -0.109168 -0.272364
-0.0975194 -0.0917643 -0.239078
-0.0890581 -0.129991 -0.200582
-0.0688983 -0.205556 -0.190614
-0.0374345 -0.288598 -0.223443
0.00129968 -0.3463 -0.274294
0.0421993 -0.359798 -0.317402
0.0780063 -0.327441 -0.325546
0.101077 -0.258114 -0.286189
-0.108694 0.22894 -0.365322
-0.120692 0.256276 -0.357164
-0.131633 0.210811 -0.261815
-0.144987 0.0880873 -0.110345
-0.160104 -0.0923413 0.0491266
-0.173881 -0.289334 0.171036
-0.183189 -0.442525 0.195265
-0.186601 -0.518578 0.118779
-0.183976 -0.507666 -0.0226199
-0.174755 -0.420512 -0.179547
-0.161176 -0.297439 -0.298807
-0.144212 -0.185234 -0.348659
-0.125088 -0.121365 -0.330171
-0.104237 -0.123585 -0.275082
-0.0776877 -0.1826 -0.221582
-0.0434403 -0.271543 -0.207793
-0.00371924 -0.355807 -0.248278
0.0368697 -0.402764 -0.310392
0.0746711 -0.398598 -0.365572
0.104051 -0.346282 -0.380889
0.11954 -0.26072 -0.339912
-0.218867 0.25668 -0.322588
-0.244555 0.282604 -0.317027
-0.262119 0.22896 -0.239468
-0.275049 0.0934747 -0.120484
-0.284835 -0.101545 -0.000179992
-0.290171 -0.308304 0.0795422
-0.289661 -0.461675 0.0708342
-0.282999 -0.529122 -0.0241126
-0.268551 -0.504924 -0.166485
-0.244157 -0.406804 -0.307777
-0.212043 -0.281432 -0.399136
-0.174429 -0.179066 -0.415086
-0.133793 -0.135832 -0.363278
-0.0927068 -0.163184 -0.280958
-0.0501386 -0.243455 -0.209618
-0.00586965 -0.341434 -0.189438
0.0372518 -0.419302 -0.233558
0.0742692 -0.447123 -0.304538
0.103637 -0.418911 -0.370206
0.122108 -0.343578 -0.394477
0.127537 -0.243276 -0.358044
-0.308717 0.274457 -0.215245
-0.348892 0.292994 -0.210246
-0.375293 0.230143 -0.160832
-0.389756 0.08674 -0.0913481
-0.393595 -0.111529 -0.0347449
-0.388995 -0.315706 -0.020236
-0.376256 -0.458976 -0.0743773
-0.355858 -0.511745 -0.186657
-0.325748 -0.474181 -0.319644
-0.283918 -0.370367 -0.430304
-0.233257 -0.251019 -0.479486
-0.177444 -0.167008 -0.452077
-0.120011 -0.150603 -0.363206
-0.06496 -0.20526 -0.253687
-0.0138041 -0.304802 -0.165386
0.0325558 -0.407037 -0.136512
0.0712175 -0.472609 -0.178098
0.0986244 -0.476345 -0.251683
0.11519 -0.420901 -0.324563
0.120755 -0.322472 -0.35773
0.116485 -0.210401 -0.331588
-0.351897 0.279131 -0.0574774
-0.399407 0.288036 -0.0475431
-0.431097 0.217385 -0.030497
-0.44669 0.0723427 -0.0233768
-0.447331 -0.119286 -0.0447354
-0.436167 -0.309929 -0.107208