# vtk DataFile Version 2.0
Func
ASCII
DATASET RECTILINEAR_GRID
DIMENSIONS 21 21 21
X_COORDINATES 21 double
-4.7619
-4.28571
-3.80952
-3.33333
-2.85714
-2.38095
-1.90476
-1.42857
-0.952381
-0.47619
0
0.47619
0.952381
1.42857
1.90476
2.38095
2.85714
3.33333
3.80952
4.28571
4.7619
Y_COORDINATES 21 double
-4.7619
-4.28571
-3.80952
-3.33333
-2.85714
-2.38095
-1.90476
-1.42857
-0.952381
-0.47619
0
0.47619
0.952381
1.42857
1.90476
2.38095
2.85714
3.33333
3.80952
4.28571
4.7619
Z_COORDINATES 21 double
-4.7619
-4.28571
-3.80952
-3.33333
-2.85714
-2.38095
-1.90476
-1.42857
-0.952381
-0.47619
0
0.47619
0.952381
1.42857
1.90476
2.38095
2.85714
3.33333
3.80952
4.28571
4.7619
POINT_DATA 9261
SCALARS data double 3
LOOKUP_TABLE default
-0.0758094 -0.0888753 -0.0460455
-0.0806132 -0.091699 -0.0391263
-0.0826871 -0.06797 -0.0140361
-0.0862249 -0.0187633 0.0300927
-0.0939755 0.0517822 0.0836219
-0.106941 0.126176 0.136609
-0.122825 0.181054 0.176058
-0.137856 0.201865 0.189985
-0.147063 0.183922 0.173915
-0.145885 0.133576 0.131999
-0.133245 0.0669646 0.0778588
-0.110865 0.00493321 0.0261799
-0.0826154 -0.0355087 -0.01176
-0.0533042 -0.0464112 -0.0325157
-0.027334 -0.0315198 -0.0379238
-0.00708244 -0.00134964 -0.0341364
0.00502407 0.0293829 -0.0303042
0.00837182 0.0496452 -0.0288121
0.00497332 0.0564283 -0.0277363
-0.00113541 0.0505234 -0.023311
-0.00816599 0.0382264 -0.014008
-0.0748152 -0.120669 -0.112287
-0.0743801 -0.128198 -0.119248
-0.0708459 -0.10211 -0.097352
-0.0696424 -0.0427686 -0.0446948
-0.0750553 0.0452713 0.0272039
-0.089947 0.140438 0.102921
-0.11162 0.213474 0.161322
-0.136177 0.246186 0.185662
-0.156553 0.232129 0.168868
-0.16643 0.177756 0.115161
-0.163305 0.101163 0.0421835
-0.148341 0.0267525 -0.0303098
-0.125167 -0.0248634 -0.0865509
-0.0984247 -0.0430639 -0.12043
-0.0724044 -0.0309784 -0.131909
-0.0493511 -9.35331e-05 -0.128111
-0.0326633 0.0329514 -0.12002
-0.02384 0.0553872 -0.10996
-0.0216614 0.0633316 -0.0962141
-0.0223867 0.0571212 -0.0763639
-0.0238273 0.0430947 -0.049922
-0.0576233 -0.15088 -0.194166
-0.0467283 -0.163203 -0.223076
-0.0328568 -0.135179 -0.211104
-0.0234976 -0.0659344 -0.154968
-0.0256518 0.0392117 -0.0675583
-0.043113 0.156144 0.0304056
-0.0732095 0.250476 0.10789
-0.111611 0.299882 0.142912
-0.149777 0.295461 0.126556
-0.178398 0.242627 0.062378
-0.193333 0.160342 -0.02836
-0.194042 0.0752798 -0.120969
-0.182948 0.0110396 -0.195117
-0.163842 -0.0190676 -0.241628
-0.140583 -0.0162249 -0.258383
-0.115196 0.00859659 -0.252213
-0.0923965 0.0382785 -0.236314
-0.075002 0.0590853 -0.212985
-0.0631194 0.0663294 -0.1809
-0.0544844 0.0596801 -0.14029
-0.0469836 0.0446203 -0.0929401
-0.0340991 -0.17845 -0.279499
-0.0107333 -0.193323 -0.332161
0.0158238 -0.162124 -0.33307
0.034513 -0.0832202 -0.277151
0.0360744 0.0375595 -0.177783
0.0156067 0.175076 -0.0597579
-0.0243909 0.291082 0.0353465
-0.0790461 0.359794 0.0804742
-0.138439 0.369502 0.0655758
-0.190214 0.32361 -0.00688085
-0.227817 0.240549 -0.112619
-0.248364 0.147788 -0.222502
-0.25252 0.0710027 -0.311952
-0.242922 0.0260214 -0.368734
-0.223058 0.0144804 -0.388713
-0.194879 0.0269021 -0.378629
-0.164647 0.0474639 -0.353012
-0.136695 0.0621763 -0.31455
-0.113014 0.0657966 -0.263035
-0.0926819 0.0575631 -0.201706
-0.0743912 0.0416349 -0.134158
-0.0235701 -0.200423 -0.346169
0.00907137 -0.214848 -0.418268
0.0455338 -0.17941 -0.431335
0.0719691 -0.0914383 -0.378384
0.0768811 0.0416054 -0.27174
0.0547393 0.196613 -0.139586
0.00768754 0.332619 -0.0319007
-0.0598838 0.421376 0.0211903
-0.136961 0.44841 0.00862674
-0.208422 0.414173 -0.0681444
-0.265422 0.335191 -0.182879
-0.302796 0.238237 -0.303428
-0.31944 0.150035 -0.402229
-0.316982 0.0885457 -0.464681
-0.29879 0.0587648 -0.48519
-0.267425 0.0537427 -0.4708
-0.230095 0.0601179 -0.436799
-0.192404 0.0646722 -0.385657
-0.157652 0.0617525 -0.319422
-0.12646 0.050554 -0.243194
-0.0986446 0.0339494 -0.161899
-0.0396804 -0.214859 -0.381321
-0.00712971 -0.226892 -0.463982
0.0305622 -0.186345 -0.483568
0.0589409 -0.0911495 -0.432539
0.065705 0.0507215 -0.322605
0.0448928 0.218695 -0.183579
-0.00216423 0.371479 -0.0690927
-0.0719605 0.479281 -0.0103146
-0.153427 0.525001 -0.0186405
-0.230649 0.505514 -0.0932514
-0.293989 0.434325 -0.207809
-0.337258 0.336224 -0.329737
-0.35827 0.238059 -0.430743
-0.358015 0.159579 -0.495
-0.339745 0.109554 -0.515857
-0.306335 0.0843161 -0.499915
-0.26532 0.0740604 -0.462009
-0.222515 0.0665248 -0.404791
-0.181866 0.0557739 -0.331932
-0.144787 0.0412942 -0.250433
-0.112138 0.0240013 -0.165955
-0.0934501 -0.218555 -0.373809
-0.0731936 -0.226731 -0.453329
-0.0452108 -0.182066 -0.470892
-0.0222518 -0.0827897 -0.419223
-0.0150657 0.0625345 -0.310098
-0.0295404 0.236996 -0.172693
-0.065461 0.401196 -0.0586702
-0.120475 0.524635 0.00228836
-0.185639 0.587628 -0.000803049
-0.246988 0.583488 -0.0671297
-0.296422 0.522082 -0.172079
-0.328699 0.425432 -0.285325
-0.341762 0.319795 -0.380311
-0.336505 0.226274 -0.441536
-0.315965 0.15722 -0.462374
-0.282982 0.112694 -0.448508
-0.244049 0.0863221 -0.413172
-0.204215 0.0672626 -0.359361
-0.166657 0.0489401 -0.291603
-0.13269 0.0313677 -0.21749
-0.103557 0.0137392 -0.14261
-0.177049 -0.209706 -0.324162
-0.178892 -0.214201 -0.38774
-0.169286 -0.167543 -0.395023
-0.156982 -0.0685812 -0.340793
-0.149456 0.0743469 -0.2376
-0.151807 0.248349 -0.11135
-0.164713 0.417474 -0.00651444
-0.187818 0.550902 0.0511102
-0.215965 0.62726 0.0520134
-0.239894 0.636582 -0.00221487
-0.255331 0.585017 -0.0901217
-0.259966 0.49159 -0.185913
-0.253172 0.381527 -0.266958
-0.236363 0.27683 -0.319602
-0.212344 0.192824 -0.338458
-0.183487 0.133013 -0.328084
-0.154106 0.0941019 -0.29933
-0.127168 0.0662824 -0.255969
-0.103953 0.0425985 -0.203114
-0.0841884 0.0230837 -0.147392
-0.0686714 0.00566932 -0.0933115
-0.272367 -0.186427 -0.243964
-0.300749 -0.187928 -0.282432
-0.313574 -0.143047 -0.274426
-0.313895 -0.0502279 -0.217778
-0.304762 0.0837464 -0.125692
-0.290085 0.249658 -0.0193509
-0.271512 0.415503 0.0677203
-0.250858 0.551158 0.115527
-0.22788 0.634263 0.117097
-0.199853 0.652351 0.0754672
-0.167868 0.608435 0.00818488
-0.133932 0.518982 -0.0648649
-0.0998517 0.408104 -0.126396
-0.0680268 0.298236 -0.165705
-0.0410077 0.20655 -0.179609
-0.0202873 0.13899 -0.171456
-0.00715184 0.094118 -0.149513
-0.00155915 0.0627811 -0.119098
-0.00193775 0.0376514 -0.0855283
-0.0054668 0.0185052 -0.0538559
-0.0115769 0.00232559 -0.0271919
-0.356633 -0.149838 -0.151706
-0.410811 -0.150082 -0.162076
-0.445774 -0.110788 -0.137303
-0.458776 -0.0292956 -0.0787947
-0.448108 0.0902627 -0.000535272
-0.41613 0.241483 0.0812934
-0.365087 0.396326 0.145159
-0.298695 0.526023 0.177777
-0.221752 0.607967 0.175632
-0.138489 0.628279 0.143591
-0.0557668 0.587851 0.0953212
0.0196272 0.50149 0.0446002
0.0829546 0.392475 0.00308381
0.130527 0.28339 -0.0217735
0.159876 0.192071 -0.0291627
0.170498 0.125636 -0.0210054
0.164343 0.0830448 -0.00306507
0.144829 0.0550809 0.0169154
0.1167 0.033889 0.0333364
0.085837 0.0184056 0.0424692
0.0550117 0.00480378 0.0422503
-0.406549 -0.103039 -0.0644456
-0.479523 -0.102871 -0.0486761
-0.531799 -0.0713652 -0.00820947
-0.555867 -0.00404748 0.0518825
-0.545988 0.0982874 0.116692
-0.502726 0.230743 0.173828
-0.428227 0.368739 0.212181
-0.327185 0.485308 0.22509
-0.208211 0.558144 0.213151
-0.0811209 0.573227 0.183319
0.0425779 0.530677 0.146472
0.152098 0.444909 0.111479
0.240017 0.338934 0.0853004
0.301274 0.235339 0.0726261
0.333084 0.151499 0.0722772
0.335522 0.0942493 0.0836706
0.313123 0.0614691 0.102986
0.272182 0.0431114 0.119406
0.220124 0.0307014 0.126557
0.165559 0.0217328 0.121106
0.113528 0.0118636 0.101176
-0.410139 -0.0511355 0.00307396
-0.491788 -0.0503787 0.0398238
-0.554447 -0.0264254 0.0941713
-0.587857 0.0270965 0.15758
-0.583665 0.112815 0.213681
-0.540577 0.225821 0.251425
-0.459701 0.34424 0.266367
-0.345321 0.442964 0.257386
-0.207572 0.50026 0.229506
-0.0591536 0.503135 0.192027
0.0860114 0.452392 0.154963
0.214826 0.363455 0.124441
0.317982 0.259839 0.1045
0.389134 0.164146 0.0981146
0.42471 0.0924397 0.102993
0.424614 0.0498972 0.119618
0.394643 0.0320875 0.145375
0.342767 0.0274454 0.16634
0.277963 0.0268771 0.174762
0.210483 0.0260821 0.166354
0.147097 0.0206422 0.138294
-0.369033 5.05287e-05 0.0406163
-0.448958 0.00254122 0.0918488
-0.51481 0.021513 0.158728
-0.55597 0.0644733 0.229547
-0.563153 0.13688 0.285555
-0.533389 0.232526 0.313988
-0.465881 0.331556 0.312046
-0.363073 0.410562 0.282407
-0.23397 0.448526 0.234428
-0.0909439 0.434373 0.180003
0.0523057 0.370766 0.130517
0.182422 0.27518 0.0918738
0.289308 0.172241 0.0671842
0.36561 0.0845898 0.05887
0.406646 0.0265099 0.0645817
0.411372 0.000624106 0.0855292
0.385305 -0.000504621 0.119689
0.336548 0.00966862 0.150966
0.274176 0.021536 0.169903
0.208535 0.0290016 0.170001
0.147085 0.0280728 0.146493
-0.297381 0.0452345 0.043352
-0.367318 0.0515502 0.102702
-0.429882 0.0691066 0.181355
-0.476381 0.106234 0.264455
-0.498177 0.169977 0.330165
-0.49103 0.252023 0.361668
-0.451811 0.334211 0.352573
-0.380288 0.394448 0.307338
-0.282181 0.412475 0.239062
-0.166818 0.37957 0.162235
-0.0455315 0.300924 0.0914716
0.0698053 0.196559 0.0346334
0.169388 0.0925242 -0.00441455
0.245329 0.0114889 -0.0228845
0.291947 -0.0341456 -0.0222772
0.306912 -0.0446509 -0.0010324
0.294302 -0.0305942 0.039157
0.261005 -0.00734253 0.0819332
0.214878 0.0151225 0.116196
0.16476 0.0292569 0.132588
0.117321 0.0321106 0.123981
-0.215305 0.0831669 0.0144629
-0.269985 0.0958988 0.075512
-0.32412 0.115827 0.164309
-0.371963 0.151155 0.263311
-0.406733 0.210072 0.346331
-0.423864 0.282284 0.390765
-0.418344 0.351497 0.383696
-0.387012 0.39627 0.329889
-0.33124 0.396857 0.245368
-0.255761 0.346679 0.147159
-0.168383 0.253419 0.0538647
-0.0784738 0.139607 -0.0238129
0.005258 0.0328412 -0.0807305
0.0749688 -0.044038 -0.113692
0.124548 -0.080232 -0.123106
0.150681 -0.0787153 -0.107273
0.155553 -0.0528764 -0.0672447
0.144132 -0.0199126 -0.01735
0.122253 0.00978711 0.0306905
0.0960487 0.0278967 0.0652327
0.0702064 0.0329115 0.0768272
-0.144676 0.113565 -0.0403158
-0.182305 0.134043 0.0161717
-0.223799 0.159213 0.111388
-0.266909 0.195543 0.225741
-0.307521 0.251483 0.329312
-0.341206 0.316313 0.39282
-0.362007 0.375741 0.395082
-0.365481 0.408972 0.340379
-0.348757 0.396417 0.2472
-0.312012 0.333096 0.13479
-0.259687 0.228519 0.0254903
-0.19853 0.107073 -0.067543
-0.135701 -0.0024381 -0.138494
-0.0783185 -0.0770311 -0.184578
-0.0319141 -0.10708 -0.205643
0.000150329 -0.0975245 -0.200272
0.018726 -0.0639492 -0.168382
0.0269689 -0.0250749 -0.119687
0.0286078 0.00810581 -0.0647293
0.0266112 0.0271631 -0.0161915
0.0229669 0.0325374 0.0151274
-0.0969404 0.136322 -0.108514
-0.118121 0.16524 -0.0616643
-0.144031 0.196406 0.0347974
-0.175812 0.235219 0.159882
-0.211939 0.288721 0.281053
-0.249036 0.347714 0.364313
-0.28122 0.399957 0.37997
-0.304114 0.425168 0.331284
-0.312536 0.404171 0.23868
-0.303147 0.332842 0.122963
-0.27813 0.221613 0.00898266
-0.242294 0.0957172 -0.0888718
-0.201255 -0.0154618 -0.165292
-0.160811 -0.088973 -0.219005
-0.124898 -0.11591 -0.250194
-0.0956796 -0.102328 -0.258106
-0.0725822 -0.0652246 -0.241028
-0.0535684 -0.0241667 -0.202129
-0.0365562 0.00925667 -0.14941
-0.0214097 0.0271287 -0.0946531
-0.00884095 0.0314013 -0.0487207
-0.0728753 0.151883 -0.168283
-0.0805257 0.188194 -0.133146
-0.0906071 0.224246 -0.0420899
-0.106893 0.264851 0.0826167
-0.130278 0.315355 0.209909
-0.157886 0.368556 0.304978
-0.185346 0.414897 0.333188
-0.209708 0.434686 0.295806
-0.225552 0.409653 0.213174
-0.22797 0.336001 0.106678
-0.21852 0.224081 0.00104041
-0.201027 0.098675 -0.0897735
-0.179761 -0.0113142 -0.161806
-0.158691 -0.083468 -0.215587
-0.139314 -0.109373 -0.252369
-0.121449 -0.0953258 -0.272048
-0.103695 -0.0585415 -0.27115
-0.0844513 -0.0185393 -0.246593
-0.0625501 0.012532 -0.203367
-0.0400558 0.0279164 -0.151092
-0.019926 0.0302377 -0.099031
-0.0665079 0.160837 -0.205813
-0.0653931 0.20241 -0.184894
-0.0626636 0.240866 -0.107085
-0.0635927 0.280671 0.00668653
-0.0697905 0.325767 0.126335
-0.0801165 0.372127 0.220727
-0.0919305 0.412707 0.254778
-0.104229 0.429036 0.229385
-0.113294 0.403807 0.162845
-0.114516 0.333184 0.0757989
-0.109936 0.22642 -0.00938033
-0.103142 0.106612 -0.0811294
-0.0973056 0.00114096 -0.138003
-0.0944065 -0.0685997 -0.182973
-0.0932074 -0.0945159 -0.218788
-0.0910015 -0.0824193 -0.245422
-0.0851343 -0.0485197 -0.257983
-0.0736252 -0.0116646 -0.248569
-0.0557793 0.0158461 -0.219297
-0.0347359 0.0283167 -0.175942
-0.0148839 0.0285011 -0.125737
-0.0682667 0.161834 -0.213166
-0.0629382 0.205404 -0.205722
-0.0523721 0.243226 -0.146439
-0.0410181 0.279332 -0.0526238
-0.0312347 0.317263 0.0493685
-0.0234377 0.355694 0.131619
-0.0168774 0.390092 0.164082
-0.0124588 0.403745 0.148007
-0.00830478 0.380678 0.0994768
-0.00183918 0.317058 0.0364442
0.00409631 0.220417 -0.022363
0.00585948 0.111125 -0.0689439
0.00120774 0.0139699 -0.104792
-0.00997804 -0.0513525 -0.135332
-0.0242885 -0.0770978 -0.164529
-0.0370684 -0.0681372 -0.19231
-0.0441072 -0.0387616 -0.213262
-0.0429946 -0.00621221 -0.216913
-0.0333436 0.0174913 -0.201705
-0.0185523 0.0273833 -0.170191
-0.0033078 0.0259998 -0.127748
-0.0678669 0.156053 -0.18871
-0.0626241 0.19826 -0.191335
-0.0498116 0.232463 -0.152389
-0.0324201 0.262918 -0.0845214
-0.012479 0.292382 -0.00807783
0.00800476 0.321502 0.0536339
0.0284676 0.348129 0.0787171
0.0462131 0.358248 0.0689895
0.0618909 0.338163 0.0376987
0.0758976 0.284036 -0.00129127
0.0847215 0.201632 -0.0338905
0.0850783 0.10774 -0.0558116
0.0755698 0.023379 -0.0707928
0.0571731 -0.0344351 -0.0856843
0.0341869 -0.0587105 -0.104769
0.0123579 -0.0531996 -0.12841
-0.00376019 -0.029773 -0.151097
-0.0113445 -0.00318191 -0.162418
-0.010113 0.0157901 -0.158255
-0.00289869 0.0232361 -0.138686
0.0061312 0.0208745 -0.107433
-0.112819 -0.0414543 -0.0046919
-0.13339 -0.0277934 0.0119493
-0.152289 0.0079575 0.041903
-0.171786 0.0632644 0.0855822
-0.191932 0.132102 0.131924
-0.210706 0.198439 0.172084
-0.224816 0.239168 0.196062
-0.229544 0.240449 0.193797
-0.222145 0.199721 0.16295
-0.20111 0.12771 0.109836
-0.168712 0.0445854 0.05057
-0.130274 -0.0248664 0.000593447
-0.0921479 -0.0616255 -0.0298338
-0.0599158 -0.0584954 -0.0401709
-0.0373737 -0.023054 -0.0354892
-0.024805 0.0294195 -0.0251609
-0.0225572 0.0786321 -0.0202071
-0.028849 0.109225 -0.0211528
-0.0394161 0.117874 -0.0236614
-0.0486001 0.106368 -0.0218124
-0.053286 0.083135 -0.0136487
-0.110734 -0.0696587 -0.0750422
-0.127763 -0.0607013 -0.0729262
-0.142967 -0.0224258 -0.0450392
-0.159405 0.0435702 0.00969716
-0.177969 0.131298 0.0774338
-0.198504 0.22007 0.142443
-0.217209 0.279865 0.185745
-0.229584 0.292681 0.19201
-0.231311 0.25403 0.156515
-0.22006 0.175362 0.0862778
-0.197221 0.079425 0.00291172
-0.168063 -0.00448023 -0.0717503
-0.138608 -0.0529937 -0.122185
-0.113706 -0.0560049 -0.145232
-0.0961019 -0.0209884 -0.144607
-0.0851278 0.0348458 -0.131813
-0.0815118 0.0883976 -0.120646
-0.083925 0.122116 -0.111427
-0.0887362 0.131706 -0.0998941
-0.090757 0.118733 -0.0813065
-0.0870071 0.0918444 -0.054406
-0.0837029 -0.102166 -0.171321
-0.0884501 -0.0993364 -0.193592
-0.0917685 -0.0594281 -0.174838
-0.0988557 0.0173101 -0.112823
-0.113184 0.124334 -0.024081
-0.135817 0.237981 0.0687559
-0.162999 0.322104 0.134639
-0.189937 0.353634 0.152002
-0.211277 0.324997 0.114174
-0.221834 0.246761 0.0281624
-0.221658 0.143007 -0.0792403
-0.214064 0.0461135 -0.179578
-0.203373 -0.0168036 -0.251524
-0.192751 -0.0325465 -0.288404
-0.183777 -0.00666057 -0.292105
-0.174684 0.043538 -0.274695
-0.167265 0.0939104 -0.253141
-0.161387 0.125808 -0.228145
-0.154912 0.134031 -0.195944
-0.144637 0.119681 -0.154378
-0.128484 0.0908858 -0.104439
-0.0451194 -0.137209 -0.277187
-0.0332333 -0.139353 -0.326351
-0.0198183 -0.0969955 -0.319605
-0.0146737 -0.00988888 -0.253333
-0.0235279 0.115362 -0.145949
-0.0488585 0.253803 -0.0252264
-0.0872607 0.364247 0.0640621
-0.133356 0.419312 0.0938726
-0.180487 0.407479 0.0561025
-0.220292 0.337057 -0.0427564
-0.25013 0.231631 -0.171479
-0.270274 0.124833 -0.295369
-0.282546 0.0465134 -0.387358
-0.288223 0.012922 -0.436921
-0.287887 0.0217184 -0.443906
-0.279177 0.0569235 -0.42094
-0.265399 0.0959028 -0.387141
-0.24809 0.119955 -0.344338
-0.227455 0.12339 -0.289986
-0.202107 0.107127 -0.225257
-0.171488 0.0783041 -0.152803
-0.0203506 -0.170742 -0.364783
0.0058449 -0.175225 -0.436293
0.0343223 -0.129674 -0.44089
0.0512449 -0.0329913 -0.373643
0.0481503 0.106857 -0.252303
0.0215877 0.267282 -0.109074
-0.0255197 0.403291 -0.000431104
-0.088386 0.484033 0.0411079
-0.159083 0.494094 0.00612061
-0.225812 0.438059 -0.0996949
-0.282945 0.337135 -0.24215
-0.327543 0.224297 -0.382084
-0.358866 0.130907 -0.4881
-0.376702 0.0759533 -0.546374
-0.381292 0.0611706 -0.555014
-0.370959 0.0736363 -0.527289
-0.34998 0.0938768 -0.483519
-0.321444 0.104578 -0.426009
-0.287365 0.100017 -0.355174
-0.248246 0.0811958 -0.27391
-0.205145 0.0543114 -0.186025
-0.0278499 -0.198162 -0.41574
0.00232589 -0.203346 -0.500616
0.0364832 -0.154115 -0.511727
0.0594832 -0.0501489 -0.443364
0.0613474 0.1004 -0.312993
0.0376072 0.277927 -0.155484
-0.00996478 0.436462 -0.0334663
-0.0778394 0.542621 0.0184872
-0.157592 0.577101 -0.00985518
-0.235906 0.539772 -0.113661
-0.305521 0.447956 -0.258195
-0.3616 0.33235 -0.403049
-0.401554 0.224755 -0.515152
-0.424241 0.14664 -0.578523
-0.429815 0.104588 -0.589661
-0.41723 0.0897908 -0.561196
-0.391387 0.0875385 -0.513041
-0.355969 0.082351 -0.448358
-0.314061 0.068552 -0.369961
-0.267302 0.0475997 -0.282841
-0.218063 0.0238164 -0.191527
-0.084937 -0.213469 -0.413459
-0.0657261 -0.217691 -0.497014
-0.039085 -0.166041 -0.506872
-0.018436 -0.0586758 -0.437297
-0.0127156 0.0960754 -0.305225
-0.0270333 0.283026 -0.145592
-0.0613667 0.457971 -0.0198696
-0.113844 0.586109 0.0384984
-0.177847 0.644019 0.0192408
-0.241626 0.62675 -0.0734223
-0.298806 0.546818 -0.20681
-0.345004 0.431579 -0.342918
-0.377287 0.312388 -0.450279
-0.394346 0.212765 -0.512689
-0.396332 0.144132 -0.526156
-0.382523 0.102484 -0.50176
-0.357105 0.0778151 -0.457317
-0.323428 0.0572941 -0.396683
-0.284074 0.0346866 -0.324055
-0.240836 0.0121914 -0.245382
-0.196415 -0.00768402 -0.164935
-0.181129 -0.212354 -0.357654
-0.185155 -0.215518 -0.426232
-0.17669 -0.164086 -0.427931
-0.164492 -0.0586796 -0.358387
-0.154685 0.0928949 -0.234213
-0.152228 0.280583 -0.0868981
-0.158671 0.464173 0.0301834
-0.174785 0.607697 0.087988
-0.197675 0.684836 0.0773803
-0.220354 0.685975 0.00250528
-0.239919 0.618599 -0.108236
-0.254928 0.506309 -0.222573
-0.263771 0.379419 -0.313742
-0.2658 0.262965 -0.367395
-0.261228 0.172578 -0.380416
-0.249303 0.108911 -0.361808
-0.232243 0.0661385 -0.32606
-0.211643 0.0335917 -0.277771
-0.188337 0.00490613 -0.22204
-0.162511 -0.0178772 -0.164116
-0.1361 -0.0336987 -0.107162
-0.292282 -0.190862 -0.262705
-0.324965 -0.193103 -0.306587
-0.339487 -0.146446 -0.296532
-0.33789 -0.0503009 -0.23033
-0.32219 0.0898821 -0.123462
-0.296798 0.268675 -0.00189257
-0.264892 0.450696 0.0942568
-0.230146 0.600241 0.143001
-0.194643 0.689114 0.137719
-0.158314 0.703828 0.0830238
-0.123527 0.647408 0.00168354
-0.0935039 0.540038 -0.081986
-0.0692664 0.410723 -0.148133
-0.0514223 0.285369 -0.185874
-0.0402241 0.182465 -0.194122
-0.0343989 0.106179 -0.179505
-0.033357 0.0534062 -0.152711
-0.0358571 0.0150845 -0.119597
-0.0398095 -0.0153951 -0.0855304
-0.0427147 -0.0365071 -0.0545162
-0.0447181 -0.0483293 -0.0284738
-0.389774 -0.149342 -0.151863
-0.450404 -0.151899 -0.167845
-0.487793 -0.114419 -0.145292
-0.497079 -0.033784 -0.0846845
-0.475656 0.0882289 -0.000352005
-0.426901 0.249759 0.0878281
-0.355152 0.420538 0.154835
-0.266652 0.566077 0.187143
-0.168709 0.65738 0.1819
-0.0688242 0.678317 0.144661
0.0247357 0.62867 0.0923048
0.103457 0.526168 0.0405843
0.163014 0.398733 0.00173605
0.201232 0.272713 -0.0174626
0.217721 0.167967 -0.0182211
0.214542 0.0906186 -0.00446589
0.195399 0.0384041 0.0169237
0.164899 0.00273207 0.0379655
0.128481 -0.0235584 0.0531124
0.0919123 -0.040095 0.0592092
0.0578025 -0.0482057 0.0550002
-0.444689 -0.0917231 -0.0477267
-0.525228 -0.0946357 -0.037642
-0.580196 -0.068347 -0.00339211
-0.599157 -0.00629507 0.0514777
-0.575491 0.094213 0.11336
-0.511079 0.2333 0.167291
-0.410466 0.385403 0.201708
-0.281266 0.517962 0.211548
-0.134721 0.602057 0.198653
0.0155212 0.620434 0.170016
0.156397 0.571302 0.137875
0.274979 0.471396 0.110746
0.363879 0.348163 0.0942462
0.41928 0.228144 0.0914734
0.440281 0.13114 0.0992722
0.429387 0.0634142 0.116259
0.392817 0.0216414 0.138694
0.338126 -0.00357551 0.155748
0.273607 -0.0202431 0.161213
0.207935 -0.029833 0.151751
0.146417 -0.0347043 0.12568
-0.443138 -0.0257177 0.0309091
-0.532122 -0.0277519 0.0622348
-0.597268 -0.011324 0.10789
-0.625092 0.0335609 0.160968
-0.60628 0.114011 0.207303
-0.540876 0.230194 0.234099
-0.432358 0.360349 0.238695
-0.287902 0.473989 0.223135
-0.120201 0.542748 0.194429
0.053932 0.549727 0.161664
0.21898 0.493485 0.134892
0.359573 0.391557 0.118131
0.466181 0.271911 0.112583
0.533458 0.161318 0.118928
0.559517 0.0784324 0.132992
0.546528 0.027897 0.155483
0.501906 0.00368292 0.18483
0.434947 -0.00565358 0.207225
0.355571 -0.0091747 0.215107
0.274167 -0.0106013 0.203536
0.197933 -0.012885 0.169106
-0.388907 0.0392785 0.071702
-0.474981 0.0402143 0.118341
-0.543044 0.051123 0.176478
-0.579454 0.0841121 0.235539
-0.573805 0.149742 0.278894
-0.524239 0.246447 0.292298
-0.431967 0.355269 0.275751
-0.30189 0.44761 0.236145
-0.145257 0.495931 0.185617
0.0215214 0.484902 0.136032
0.183284 0.415085 0.0982616
0.324598 0.306257 0.0751515
0.435076 0.187763 0.066119
0.508151 0.086711 0.0709035
0.540605 0.0200222 0.0854831
0.533415 -0.0104367 0.112063
0.493623 -0.0143431 0.150346
0.430642 -0.00597903 0.184475
0.354439 0.00446203 0.2051
0.275411 0.011021 0.204458
0.201295 0.0106729 0.176374
-0.301055 0.0952669 0.0695729
-0.375732 0.10235 0.125861
-0.440603 0.113352 0.198354
-0.484456 0.141825 0.272087
-0.497296 0.199913 0.326518
-0.475598 0.283037 0.343264
-0.417691 0.37432 0.318336
-0.325128 0.446469 0.260829
-0.205414 0.472838 0.187321
-0.0715383 0.440388 0.112733
0.0639557 0.352786 0.0513542
0.187547 0.232956 0.007893
0.289232 0.112253 -0.0176845
0.361733 0.0182662 -0.0253045
0.400629 -0.033911 -0.0178389
0.405302 -0.0456596 0.00773909
0.381251 -0.030557 0.0518758
0.336569 -0.00603159 0.0987149
0.279832 0.0165887 0.137066
0.219731 0.0294711 0.155817
0.16276 0.0302719 0.145846
-0.205471 0.13933 0.0298868
-0.263914 0.155911 0.0896904
-0.320957 0.17284 0.176714
-0.3687 0.203247 0.272101
-0.398843 0.260233 0.34899
-0.407111 0.335865 0.382501
-0.389607 0.415154 0.361171
-0.344199 0.4711 0.294184
-0.273621 0.477665 0.201604
-0.185768 0.424087 0.101582
-0.0894115 0.317411 0.0131243
0.00490174 0.184002 -0.0557144
0.0884245 0.0576305 -0.103445
0.153807 -0.0333111 -0.129456
0.196103 -0.0752053 -0.135274
0.213465 -0.0724766 -0.117561
0.209465 -0.0422398 -0.0749628
0.19019 -0.00514838 -0.0209661
0.161999 0.0261702 0.0325663
0.130615 0.0427691 0.0722028
0.0999614 0.0435813 0.0861101
-0.128048 0.171006 -0.0389447
-0.169186 0.19877 0.01787
-0.214225 0.225752 0.116436
-0.259291 0.262853 0.234454
-0.298393 0.322504 0.339397
-0.32714 0.395044 0.39834
-0.340319 0.466865 0.389873
-0.33439 0.511205 0.322508
-0.307553 0.502131 0.219165
-0.262768 0.430781 0.101002
-0.205358 0.307087 -0.00823181
-0.142923 0.160396 -0.0972402
-0.0825063 0.02673 -0.163479
-0.0307432 -0.0646181 -0.206676
0.00806225 -0.100985 -0.227726
0.0319296 -0.0888864 -0.223675
0.0432053 -0.0483784 -0.192015
0.0461491 -0.00291287 -0.140952
0.0448634 0.0334239 -0.0808488
0.0417303 0.0511788 -0.0258958
0.0374433 0.0511936 0.0107378
-0.0815029 0.191326 -0.121925
-0.106388 0.230736 -0.0739307
-0.136102 0.269001 0.0302088
-0.170402 0.315041 0.165693
-0.205674 0.378789 0.295583
-0.238445 0.450673 0.381344
-0.263572 0.518262 0.390902
-0.277593 0.554728 0.331203
-0.276747 0.534724 0.227736
-0.260221 0.450619 0.103801
-0.231237 0.314317 -0.0133746
-0.195396 0.157093 -0.110486
-0.15815 0.0165191 -0.185189
-0.124728 -0.0774313 -0.238832
-0.0976359 -0.112507 -0.272755
-0.0775067 -0.0963706 -0.285164
-0.0620278 -0.0509661 -0.271935
-0.0479612 -0.00152066 -0.233781
-0.0328726 0.0365811 -0.178053
-0.0172445 0.053985 -0.117381
-0.00337176 0.052962 -0.0645759
-0.063877 0.201913 -0.19307
-0.0757035 0.251155 -0.156573
-0.0895544 0.299009 -0.0552357
-0.10779 0.352799 0.0841445
-0.129034 0.419566 0.225275
-0.150429 0.490485 0.328351
-0.168455 0.554826 0.355064
-0.18149 0.585921 0.309292
-0.185952 0.559636 0.216489
-0.179426 0.469165 0.101179
-0.164858 0.327216 -0.00903979
-0.147033 0.165391 -0.100653
-0.130125 0.0214154 -0.172341
-0.117376 -0.074812 -0.227306
-0.108557 -0.111301 -0.268274
-0.10156 -0.0957801 -0.29464
-0.0929677 -0.0505212 -0.300598
-0.0798602 -0.00114483 -0.279978
-0.0606965 0.0359009 -0.236648
-0.0381148 0.052109 -0.180329
-0.0167364 0.0502845 -0.121481
-0.0667824 0.204653 -0.236215
-0.0701424 0.26009 -0.213932
-0.0706923 0.313483 -0.125129
-0.0720884 0.370702 0.00498342
-0.0737346 0.436345 0.140476
-0.0744897 0.503735 0.245719
-0.0728459 0.563853 0.281376
-0.0694943 0.591153 0.250298
-0.0632493 0.562928 0.175202
-0.0520386 0.472923 0.0801722
-0.0397481 0.333327 -0.00938548
-0.0312457 0.174351 -0.0819528
-0.0297328 0.032295 -0.138418
-0.0362544 -0.0639321 -0.184448
-0.0474277 -0.102642 -0.224556
-0.0582775 -0.0906872 -0.258605
-0.0638429 -0.0490706 -0.279703
-0.0606655 -0.00270207 -0.276614
-0.0476181 0.0316784 -0.250036
-0.0283334 0.0464002 -0.205072
-0.008787 0.044333 -0.149409
-0.0772579 0.199085 -0.242711
-0.0763823 0.25603 -0.233959
-0.0682114 0.309852 -0.164616
-0.0556375 0.365146 -0.0555627
-0.0388924 0.425342 0.0615671
-0.0183964 0.485851 0.15474
0.00530517 0.539685 0.190148
0.0291309 0.563502 0.170475
0.0522216 0.536418 0.115588
0.0743192 0.452829 0.0462985
0.0904333 0.323386 -0.0156514
0.0953489 0.175295 -0.0621436
0.0866673 0.0417361 -0.096714
0.0654489 -0.0505256 -0.127439
0.0374384 -0.0903252 -0.160009
0.0098726 -0.0831704 -0.194608
-0.0105416 -0.0474793 -0.224256
-0.0197886 -0.00603318 -0.235419
-0.0169784 0.0248807 -0.224871
-0.00594228 0.0382181 -0.194003
0.00719184 0.0365678 -0.148104
-0.0827953 0.185924 -0.21184
-0.0811094 0.239761 -0.2128
-0.0693047 0.289061 -0.165685
-0.0491761 0.338108 -0.0855068
-0.0213009 0.389156 0.00315852
0.0126178 0.439257 0.0737927
0.0508026 0.483629 0.101741
0.0885701 0.502419 0.0898904
0.123843 0.477823 0.0543204
0.154333 0.404914 0.0108942
0.174179 0.292374 -0.0236441
0.178477 0.163069 -0.0448392
0.165626 0.0453587 -0.0580365
0.137732 -0.0375657 -0.0723877
0.101418 -0.0756458 -0.0935976
0.0649885 -0.0729572 -0.122488
0.0354226 -0.0447637 -0.152491
0.0170897 -0.0104355 -0.17081
0.0107992 0.0155487 -0.17177
0.0133138 0.0272315 -0.154211
0.0192589 0.026261 -0.121449
-0.149073 0.0433148 0.0529756
-0.191028 0.0794147 0.0823535
-0.233472 0.126027 0.116161
-0.274606 0.178465 0.153524
-0.309521 0.230219 0.183292
-0.332446 0.26854 0.199249
-0.338668 0.276587 0.19711
-0.324235 0.244584 0.170981
-0.28987 0.173943 0.122166
-0.239932 0.0802359 0.0603321
-0.182205 -0.0133239 0.00261562
-0.126585 -0.0801838 -0.0366639
-0.0817727 -0.101813 -0.0505258
-0.0534452 -0.0739939 -0.0432236
-0.0431907 -0.00937159 -0.0247764
-0.0475967 0.0714296 -0.00835388
-0.063399 0.142626 -0.00590569
-0.0851966 0.184719 -0.0144099
-0.105841 0.194896 -0.0255372
-0.118056 0.176256 -0.0300437
-0.117991 0.139869 -0.0248028
-0.146816 0.0270947 -0.0142103
-0.187811 0.0596459 0.00191509
-0.229221 0.108234 0.0356131
-0.269272 0.169338 0.0862276
-0.303344 0.237341 0.138947
-0.327004 0.2947 0.179513
-0.334847 0.31823 0.194493
-0.323847 0.294086 0.172671
-0.294112 0.22212 0.113649
-0.250581 0.11929 0.0288688
-0.201167 0.0118759 -0.0574761
-0.156389 -0.0686024 -0.12354
-0.124443 -0.0991786 -0.156705
-0.109756 -0.0731315 -0.15916
-0.11155 -0.0040534 -0.140839
-0.124483 0.0843615 -0.118501
-0.144482 0.162596 -0.107946
-0.165813 0.208696 -0.105654
-0.181425 0.218738 -0.103207
-0.184741 0.196296 -0.0917964
-0.172921 0.153185 -0.0683076
-0.110156 -0.000658396 -0.119756
-0.137653 0.0249634 -0.128238
-0.166284 0.0735755 -0.101321
-0.196076 0.14354 -0.0386946
-0.224784 0.229238 0.0406565
-0.24918 0.30985 0.113995
-0.26379 0.356452 0.153983
-0.265823 0.349675 0.142335
-0.255117 0.286293 0.0769095
-0.234437 0.182628 -0.0298194
-0.210879 0.0667076 -0.146623
-0.192988 -0.0264241 -0.243259
-0.186771 -0.0698131 -0.300172
-0.193971 -0.0538371 -0.315899
-0.211764 0.00918333 -0.299303
-0.232652 0.0943459 -0.269088
-0.253033 0.170547 -0.245255
-0.267982 0.214757 -0.225277
-0.271858 0.222031 -0.201494
-0.260559 0.196165 -0.167127
-0.233193 0.149251 -0.120939
-0.0551945 -0.0381243 -0.243647
-0.0619207 -0.0202491 -0.280204
-0.0698963 0.028239 -0.262382
-0.0844708 0.10653 -0.189255
-0.105691 0.209764 -0.083284
-0.131779 0.315423 0.0267181
-0.157644 0.389341 0.0962617
-0.180283 0.407315 0.099233
-0.198397 0.361647 0.031713
-0.211786 0.266229 -0.0932327
-0.224603 0.148668 -0.238266
-0.241808 0.0455285 -0.364877
-0.266226 -0.0132329 -0.446185
-0.296875 -0.014879 -0.476217
-0.329176 0.0311594 -0.462017
-0.354723 0.100835 -0.423884
-0.371081 0.164546 -0.385048
-0.374995 0.199596 -0.34514
-0.363456 0.200557 -0.297869
-0.334696 0.171852 -0.239876
-0.290021 0.125228 -0.171148
-0.0120004 -0.0803404 -0.352941
0.0013608 -0.068876 -0.413659
0.0142813 -0.0204295 -0.404523
0.0161368 0.0653993 -0.324287
0.00343182 0.18307 -0.195275
-0.0231843 0.312347 -0.0520467
-0.0590333 0.414683 0.0455029
-0.101989 0.461612 0.0649209
-0.149468 0.440764 0.000611799
-0.197051 0.361644 -0.134562
-0.245084 0.249195 -0.29908
-0.294378 0.139372 -0.448147
-0.344445 0.0639259 -0.548904
-0.392266 0.0386341 -0.591068
-0.432759 0.0582467 -0.579645
-0.458404 0.101909 -0.536035
-0.467882 0.143667 -0.485379
-0.459676 0.162895 -0.42904
-0.433138 0.154619 -0.364391
-0.388699 0.123829 -0.289472
-0.329652 0.0819706 -0.205157
-0.0027991 -0.119645 -0.422413
0.0208191 -0.113748 -0.499208
0.0458344 -0.0653928 -0.495601