# vtk DataFile Version 2.0
Func
ASCII
DATASET RECTILINEAR_GRID
DIMENSIONS 21 21 21
X_COORDINATES 21 double
-4.7619
-4.28571
-3.80952
-3.33333
-2.85714
-2.38095
-1.90476
-1.42857
-0.952381
-0.47619
0
0.47619
0.952381
1.42857
1.90476
2.38095
2.85714
3.33333
3.80952
4.28571
4.7619
Y_COORDINATES 21 double
-4.7619
-4.28571
-3.80952
-3.33333
-2.85714
-2.38095
-1.90476
-1.42857
-0.952381
-0.47619
0
0.47619
0.952381
1.42857
1.90476
2.38095
2.85714
3.33333
3.80952
4.28571
4.7619
Z_COORDINATES 21 double
-4.7619
-4.28571
-3.80952
-3.33333
-2.85714
-2.38095
-1.90476
-1.42857
-0.952381
-0.47619
0
0.47619
0.952381
1.42857
1.90476
2.38095
2.85714
3.33333
3.80952
4.28571
4.7619
POINT_DATA 9261
SCALARS data double 3
LOOKUP_TABLE default
0.146345 0.0246085 -0.076938
0.183156 0.0289274 -0.0942928
0.221844 0.0319063 -0.0967974
0.255446 0.0304055 -0.08263
0.281055 0.0214736 -0.0550044
0.298761 0.00190316 -0.0161725
0.309693 -0.031985 0.0211741
0.315041 -0.0811315 0.0531932
0.316947 -0.141474 0.0770969
0.316943 -0.203751 0.0903835
0.314587 -0.253605 0.0954585
0.30767 -0.277842 0.0956051
0.292983 -0.269308 0.0940034
0.268172 -0.229922 0.094052
0.233295 -0.169746 0.0963836
0.190398 -0.106294 0.100831
0.142995 -0.0553243 0.105571
0.0956673 -0.0220586 0.106842
0.054184 -0.00903655 0.100895
0.0218381 -0.00969171 0.0869178
0.00296179 -0.0152778 0.0664676
0.160848 0.0442112 -0.0575664
0.199675 0.0540488 -0.0650612
0.239932 0.0583315 -0.0574969
0.274839 0.0529462 -0.0352928
0.30233 0.034296 -0.00429019
0.324346 0.00174007 0.0342354
0.34206 -0.0462628 0.0670148
0.356462 -0.109945 0.0919074
0.367945 -0.183945 0.109145
0.37694 -0.25664 0.118103
0.381323 -0.310993 0.12217
0.377891 -0.331565 0.124637
0.362715 -0.310607 0.12777
0.333222 -0.251896 0.133821
0.289993 -0.169843 0.141859
0.235906 -0.0878069 0.150902
0.176095 -0.0258282 0.158929
0.116827 0.00981453 0.160504
0.0652061 0.0171378 0.151651
0.025567 0.00628844 0.1313
0.0028277 -0.00948999 0.101109
0.146678 0.066445 -0.0119776
0.177624 0.0811028 -0.000627945
0.21003 0.0844205 0.0220774
0.238668 0.0714014 0.0523881
0.263514 0.0392981 0.081273
0.288036 -0.00961165 0.108869
0.313131 -0.0739591 0.124753
0.339126 -0.152222 0.130515
0.364568 -0.237634 0.130331
0.387245 -0.316472 0.127362
0.403472 -0.369894 0.126502
0.408637 -0.381015 0.130781
0.398285 -0.342384 0.140805
0.369852 -0.260448 0.156576
0.324445 -0.154851 0.174452
0.265571 -0.0549807 0.192184
0.199709 0.0151591 0.206875
0.134443 0.049069 0.210916
0.0775782 0.0467129 0.200644
0.033949 0.0224961 0.174796
0.00861932 -0.00535071 0.135306
0.11054 0.089626 0.0520085
0.127536 0.105653 0.0859077
0.146169 0.10344 0.124942
0.164577 0.0783799 0.160763
0.184418 0.0296868 0.182531
0.209989 -0.0365762 0.189591
0.241671 -0.11556 0.177879
0.2785 -0.204206 0.154223
0.317454 -0.294921 0.127492
0.354067 -0.372971 0.105524
0.383082 -0.419149 0.0953981
0.398829 -0.416238 0.0997782
0.396745 -0.357782 0.117232
0.374407 -0.253063 0.144868
0.33326 -0.126635 0.17569
0.277275 -0.0130424 0.205518
0.21362 0.0607774 0.230415
0.150205 0.0889633 0.240343
0.0944044 0.074225 0.232008
0.0510497 0.03519 0.2041
0.0247455 -0.00477393 0.15899
0.0718134 0.109278 0.116689
0.0743917 0.120989 0.171112
0.0789658 0.10789 0.22348
0.0865605 0.0666284 0.262084
0.100795 0.00104812 0.271461
0.125365 -0.0802625 0.252192
0.15976 -0.168445 0.207379
0.202524 -0.259677 0.149287
0.249806 -0.34689 0.0912739
0.295383 -0.415717 0.0463158
0.333252 -0.448275 0.023902
0.357475 -0.428214 0.0264498
0.363865 -0.350624 0.0505937
0.350321 -0.227327 0.0904779
0.318391 -0.086657 0.135677
0.272219 0.0334768 0.179453
0.218728 0.104589 0.2167
0.165012 0.122736 0.235588
0.116877 0.0938235 0.233065
0.0783263 0.040291 0.208036
0.0528755 -0.00983574 0.163185
0.0497473 0.120254 0.167026
0.0442411 0.12222 0.235346
0.0416502 0.0933701 0.294211
0.0437944 0.0338292 0.328437
0.0548058 -0.0471122 0.320888
0.0773458 -0.137495 0.273085
0.109841 -0.226038 0.194897
0.150436 -0.309332 0.103119
0.195229 -0.382513 0.0147513
0.237975 -0.433419 -0.0523801
0.273665 -0.447167 -0.0868885
0.297741 -0.409261 -0.0866397
0.307371 -0.316443 -0.0567553
0.301212 -0.182271 -0.00582533
0.280891 -0.0369788 0.05287
0.249898 0.0803499 0.10996
0.213716 0.141475 0.159352
0.177184 0.145456 0.188807
0.143355 0.101583 0.19583
0.114411 0.0354898 0.179086
0.092155 -0.0214867 0.141981
0.0684407 0.117547 0.182497
0.0670846 0.104908 0.251079
0.0694028 0.0573792 0.305531
0.0755011 -0.0196602 0.329279
0.088219 -0.11075 0.30519
0.108355 -0.20104 0.235614
0.133378 -0.278964 0.13346
0.161326 -0.342965 0.018196
0.189535 -0.391723 -0.0907557
0.213947 -0.417363 -0.172845
0.232563 -0.409363 -0.215562
0.243993 -0.35574 -0.217086
0.247764 -0.254621 -0.183807
0.243761 -0.120091 -0.126178
0.233778 0.0181177 -0.0589672
0.219735 0.122268 0.00665656
0.204618 0.166082 0.0644675
0.189726 0.152707 0.103618
0.174429 0.0945624 0.122204
0.158148 0.0194226 0.11867
0.14048 -0.0397335 0.0963891
0.12874 0.0982434 0.156758
0.143424 0.0681872 0.210813
0.161499 0.00215607 0.25043
0.179146 -0.0884969 0.259717
0.196392 -0.181875 0.223948
0.211827 -0.261429 0.144509
0.222485 -0.317414 0.0329541
0.226843 -0.351036 -0.0908266
0.225107 -0.366558 -0.206695
0.217534 -0.361935 -0.294083
0.206767 -0.331856 -0.340084
0.195883 -0.267181 -0.342944
0.187217 -0.166852 -0.309472
0.181847 -0.0440527 -0.250806
0.181304 0.0745848 -0.181562
0.185393 0.155265 -0.113618
0.193242 0.17527 -0.0524845
0.201804 0.14238 -0.00603425
0.206587 0.0720207 0.0243095
0.203845 -0.00735433 0.0365977
0.191112 -0.0633644 0.0340218
0.215829 0.0619216 0.0955204
0.253193 0.0139704 0.123543
0.291995 -0.0666336 0.141464
0.323234 -0.163303 0.136329
0.343501 -0.249767 0.0966056
0.349546 -0.308324 0.0212832
0.338853 -0.332432 -0.0831967
0.311341 -0.327546 -0.198968
0.271459 -0.304538 -0.307278
0.225139 -0.268156 -0.390046
0.180364 -0.218529 -0.434539
0.144796 -0.149334 -0.438526
0.123078 -0.0595973 -0.408178
0.116768 0.0398029 -0.354116
0.126285 0.127749 -0.289357
0.148705 0.176609 -0.225499
0.179117 0.168491 -0.166834
0.210008 0.116046 -0.117312
0.233317 0.0367052 -0.0777909
0.242568 -0.0415903 -0.0505182
0.234261 -0.0893889 -0.0327314
0.305805 0.0122814 0.0114416
0.365402 -0.0504519 0.00830694
0.422279 -0.138864 0.00330096
0.462849 -0.232791 -0.0126399
0.480606 -0.303894 -0.0472418
0.471503 -0.333989 -0.104708
0.434665 -0.320694 -0.186846
0.372349 -0.274378 -0.279845
0.294065 -0.212619 -0.367969
0.21167 -0.147083 -0.437411
0.137966 -0.0828593 -0.47594
0.0840398 -0.0160698 -0.480393
0.0554196 0.054865 -0.455515
0.0528204 0.122442 -0.410588
0.0744656 0.172668 -0.356021
0.114411 0.185443 -0.302257
0.164123 0.148294 -0.252114
0.21261 0.078354 -0.205518
0.249509 -0.00576825 -0.162339
0.266884 -0.0782277 -0.124609
0.261533 -0.113956 -0.0902445
0.368912 -0.0432287 -0.0748317
0.441443 -0.115344 -0.107073
0.505631 -0.203825 -0.131046
0.545079 -0.28682 -0.151627
0.55165 -0.336576 -0.17304
0.521953 -0.33512 -0.203057
0.457893 -0.284451 -0.252685
0.364749 -0.199824 -0.313359
0.256992 -0.104565 -0.373447
0.15133 -0.0164339 -0.424106
0.063611 0.0556257 -0.453784
0.0060274 0.113646 -0.458139
-0.0170674 0.160339 -0.440059
-0.00737114 0.192075 -0.407113
0.0300733 0.202575 -0.36673
0.0863992 0.179672 -0.327626
0.150531 0.116228 -0.291238
0.209754 0.032921 -0.254028
0.253212 -0.0510946 -0.214305
0.273311 -0.11339 -0.173106
0.268493 -0.134624 -0.129157
0.384829 -0.0953693 -0.142065
0.455438 -0.170295 -0.194647
0.511542 -0.251569 -0.229619
0.536589 -0.317549 -0.248241
0.522956 -0.343507 -0.251979
0.469466 -0.312312 -0.251605
0.381592 -0.230036 -0.265867
0.267864 -0.116017 -0.291514
0.146618 0.00262077 -0.321416
0.0371829 0.103784 -0.351419
-0.044169 0.176258 -0.370928
-0.0870171 0.220986 -0.374577
-0.0903102 0.242013 -0.363471
-0.0594796 0.239383 -0.34364
-0.00344312 0.213905 -0.319803
0.0666637 0.16059 -0.298681
0.138791 0.0768765 -0.280503
0.200657 -0.0143032 -0.258969
0.242887 -0.0936613 -0.230105
0.260076 -0.143025 -0.193047
0.253359 -0.149114 -0.147421
0.349311 -0.135499 -0.172351
0.402371 -0.206688 -0.23207
0.435343 -0.27539 -0.268403
0.434313 -0.321559 -0.280173
0.394383 -0.325177 -0.266907
0.31786 -0.270529 -0.240857
0.213934 -0.166911 -0.224873
0.0939765 -0.0363327 -0.219912
-0.0217798 0.0928394 -0.223034
-0.11431 0.196467 -0.23382
-0.169777 0.262756 -0.243152
-0.182168 0.292256 -0.245369
-0.15523 0.29018 -0.240513
-0.0986434 0.259463 -0.233793
-0.0248898 0.206396 -0.22789
0.0538704 0.131583 -0.227415
0.126405 0.0358558 -0.231379
0.182887 -0.0570443 -0.230926
0.217088 -0.128039 -0.21905
0.22712 -0.163498 -0.192214
0.217174 -0.155696 -0.150997
0.275294 -0.158204 -0.154395
0.299352 -0.220543 -0.20699
0.299104 -0.273807 -0.236012
0.265671 -0.300709 -0.238853
0.198664 -0.286581 -0.214012
0.104433 -0.217644 -0.173512
-0.00471663 -0.105408 -0.13905
-0.115594 0.0273389 -0.113821
-0.208645 0.15363 -0.0981879
-0.268216 0.249792 -0.0940792
-0.285313 0.30503 -0.0945828
-0.259957 0.320069 -0.0950181
-0.201 0.30083 -0.0956656
-0.121695 0.251923 -0.101907
-0.0366688 0.182809 -0.115089
0.0426418 0.097533 -0.137671
0.107475 -0.00101305 -0.167082
0.151885 -0.089749 -0.191152
0.173787 -0.15008 -0.199603
0.175127 -0.172586 -0.186059
0.162809 -0.154003 -0.15182
0.184877 -0.164312 -0.0916504
0.175714 -0.215279 -0.125367
0.140375 -0.252802 -0.14173
0.0757916 -0.262825 -0.137946
-0.0131851 -0.236305 -0.111056
-0.116342 -0.16225 -0.0703045
-0.219458 -0.0535988 -0.0317874
-0.309026 0.0681303 0.00122543
-0.368684 0.179766 0.0263253
-0.3885 0.260527 0.0403826
-0.365543 0.302037 0.0472749
-0.305928 0.305694 0.0491572
-0.222535 0.277547 0.0440084
-0.13042 0.222464 0.0254392
-0.0441872 0.150477 -0.00710899
0.0271897 0.0666833 -0.0537991
0.0784775 -0.0255539 -0.109968
0.107894 -0.105094 -0.159423
0.117434 -0.154199 -0.18831
0.112008 -0.166889 -0.187166
0.0996756 -0.143122 -0.158418
0.103199 -0.158749 0.00451707
0.0645888 -0.197829 -0.00315175
0.000335574 -0.221657 -0.00520934
-0.0871677 -0.21864 0.000609629
-0.188094 -0.184893 0.018319
-0.289686 -0.113168 0.0443686
-0.377405 -0.0171272 0.0725417
-0.438778 0.0841332 0.101461
-0.462744 0.173139 0.127535
-0.446322 0.233855 0.147246
-0.392473 0.261429 0.160458
-0.311975 0.258328 0.165242
-0.219599 0.230202 0.156457
-0.129764 0.18094 0.126074
-0.054534 0.11871 0.0741742
0.00103476 0.047092 0.00284263
0.0354237 -0.0310974 -0.0804465
0.0504721 -0.0979007 -0.153862
0.0512401 -0.137531 -0.199665
0.0438239 -0.14579 -0.206565
0.0354335 -0.122853 -0.178304
0.0485066 -0.145855 0.114235
-0.00963937 -0.174523 0.133986
-0.090961 -0.187166 0.144412
-0.188834 -0.175513 0.147137
-0.289881 -0.138883 0.147436
-0.380172 -0.0748706 0.147867
-0.446593 0.00292405 0.15497
-0.478987 0.0788913 0.170869
-0.472435 0.141689 0.191474
-0.430913 0.181208 0.213253
-0.362063 0.196589 0.231524
-0.279018 0.191536 0.239368
-0.195924 0.170881 0.227735
-0.124141 0.136628 0.18675
-0.0710557 0.0931945 0.117152
-0.0370579 0.0413471 0.0230038
-0.0202269 -0.0176283 -0.0847212
-0.0163717 -0.0699324 -0.177196
-0.019017 -0.102816 -0.234026
-0.0228601 -0.111499 -0.243264
-0.023345 -0.0951474 -0.209924
0.0235216 -0.129898 0.206313
-0.0421195 -0.15029 0.246745
-0.127124 -0.154641 0.264623
-0.222223 -0.138153 0.262347
-0.312044 -0.102257 0.244765
-0.38392 -0.0487458 0.21911
-0.427116 0.00895633 0.202735
-0.434658 0.0594486 0.202164
-0.407592 0.0970724 0.213975
-0.355448 0.117688 0.234218
-0.288421 0.124141 0.254701
-0.219389 0.121215 0.264254
-0.159563 0.112655 0.250601
-0.11561 0.0981916 0.202864
-0.0893181 0.0778261 0.121971
-0.0768704 0.0488625 0.013792
-0.0741541 0.010524 -0.107424
-0.0765132 -0.0281341 -0.208106
-0.0773404 -0.0567952 -0.266981
-0.0739539 -0.0695063 -0.274554
-0.0653724 -0.0634841 -0.235746
0.0203298 -0.114981 0.260877
-0.0411605 -0.129988 0.313429
-0.117395 -0.129081 0.333862
-0.198311 -0.110337 0.324232
-0.269606 -0.0764802 0.291649
-0.320241 -0.0334106 0.245537
-0.342906 0.00622425 0.210551
-0.334163 0.0347779 0.195692
-0.298965 0.0515664 0.199515
-0.249877 0.0573878 0.217555
-0.197275 0.0580963 0.23904
-0.151618 0.0592716 0.249936
-0.12001 0.0636323 0.236074
-0.104369 0.0689447 0.186454
-0.101996 0.0712685 0.102164
-0.106427 0.0645819 -0.00926346
-0.112908 0.0457969 -0.132068
-0.117213 0.0199448 -0.230501
-0.114127 -0.00589901 -0.286244
-0.103404 -0.0244819 -0.289165
-0.0874201 -0.0307214 -0.245267
0.0266065 -0.101978 0.268459
-0.023505 -0.113941 0.323106
-0.0832332 -0.110255 0.342116
-0.144344 -0.0909191 0.32648
-0.194509 -0.059967 0.283996
-0.225115 -0.0258765 0.227517
-0.232211 -0.000367629 0.182856
-0.215503 0.0120988 0.160091
-0.182293 0.0144132 0.158888
-0.145052 0.0106741 0.175156
-0.112689 0.00861139 0.196706
-0.092088 0.014181 0.208662
-0.0861214 0.0292868 0.196774
-0.0930107 0.0503948 0.150664
-0.106814 0.0707006 0.0720652
-0.120518 0.0819581 -0.0311395
-0.129535 0.0790972 -0.143242
-0.131366 0.063551 -0.231289
-0.123612 0.0400649 -0.2783
-0.107935 0.0163719 -0.275743
-0.0880057 -0.000883959 -0.230039
0.0300312 -0.0876047 0.230858
-0.00521027 -0.0983311 0.27815
-0.0454957 -0.0939604 0.292928
-0.0853679 -0.0762326 0.275104
-0.116076 -0.0491962 0.231742
-0.131125 -0.0223202 0.177135
-0.129337 -0.00612641 0.133672
-0.111841 -0.00297469 0.110558
-0.0867194 -0.00829791 0.107965
-0.0640938 -0.0162093 0.122703
-0.0500791 -0.018612 0.143006
-0.0482748 -0.00972696 0.155344
-0.0586326 0.011773 0.147211
-0.0771155 0.0418766 0.109755
-0.0974912 0.0723044 0.0449104
-0.112745 0.0939745 -0.0396316
-0.119972 0.101209 -0.130376
-0.118358 0.0927644 -0.201118
-0.107941 0.071655 -0.236751
-0.0914999 0.0459667 -0.230808
-0.0730096 0.0218273 -0.189995
0.191104 0.0220172 -0.108318
0.23237 0.0211242 -0.130421
0.273137 0.0183335 -0.132914
0.305798 0.0118503 -0.114604
0.328296 0.000660942 -0.0803853
0.341557 -0.0181809 -0.0321186
0.347997 -0.0498671 0.0158318
0.349685 -0.0978475 0.0599395
0.349179 -0.160529 0.0971442
0.347796 -0.229533 0.123358
0.344649 -0.288771 0.139153
0.337079 -0.321477 0.145602
0.321053 -0.316625 0.144411
0.293564 -0.273419 0.139312
0.254636 -0.202447 0.132418
0.206151 -0.124389 0.126223
0.152422 -0.059012 0.121752
0.0988513 -0.0143798 0.117103
0.0523272 0.00454007 0.107573
0.0165982 0.00394127 0.0916942
-0.00391347 -0.00469971 0.0693786
0.210513 0.0440468 -0.0887983
0.252824 0.0491719 -0.100284
0.293139 0.0481144 -0.0912119
0.324822 0.037945 -0.0633059
0.347479 0.0169941 -0.0248095
0.364223 -0.0148957 0.023164
0.377673 -0.0604965 0.0652102
0.389651 -0.123251 0.100186
0.40063 -0.20084 0.128823
0.410147 -0.282301 0.149661
0.414993 -0.348311 0.164363
0.411405 -0.378817 0.173809
0.394639 -0.361204 0.178317
0.361586 -0.295972 0.180055
0.313224 -0.198902 0.179246
0.252524 -0.0976954 0.17766
0.185767 -0.0177183 0.176483
0.120168 0.0309806 0.172353
0.0639553 0.0434171 0.160128
0.0217045 0.029885 0.137885
-0.00201237 0.00758374 0.105546
0.191336 0.0732518 -0.033132
0.223259 0.0848744 -0.0230904
0.253067 0.0837579 0.00306282
0.276522 0.0659918 0.0396949
0.29558 0.0310777 0.0748979
0.315196 -0.0179933 0.1086
0.337574 -0.0806272 0.128541
0.363549 -0.1589 0.138321
0.391258 -0.249481 0.143902
0.416734 -0.339175 0.148693
0.435068 -0.40629 0.156357
0.440877 -0.42834 0.167514
0.429045 -0.392089 0.18036
0.396801 -0.300323 0.194142
0.346122 -0.174914 0.205702
0.280882 -0.0508368 0.215264
0.209021 0.0411174 0.223047
0.138992 0.0896696 0.223285
0.0794218 0.09105 0.210949
0.0348278 0.0604341 0.183837
0.00941836 0.0213567 0.142026
0.143523 0.109258 0.0476514
0.158517 0.124924 0.0842902
0.172178 0.119161 0.12887
0.184433 0.088629 0.170648
0.198893 0.0353268 0.195961
0.221322 -0.0335027 0.203212
0.252859 -0.112707 0.187535
0.292539 -0.203232 0.159085
0.336178 -0.300917 0.130228
0.377277 -0.391514 0.109888
0.409332 -0.452626 0.104782
0.42591 -0.460745 0.115301
0.422152 -0.402998 0.137194
0.395922 -0.284825 0.166069
0.350068 -0.133921 0.194596
0.289348 0.00852627 0.22054
0.222316 0.107484 0.242654
0.157387 0.151434 0.252147
0.102022 0.138578 0.244206
0.0601029 0.0890194 0.21621
0.0348182 0.0326281 0.168773
0.0913122 0.147425 0.131733
0.0900626 0.16187 0.193446
0.0889583 0.145595 0.25325
0.0913298 0.0969978 0.296984
0.102288 0.0234532 0.305926
0.126582 -0.0644884 0.279635
0.163632 -0.156248 0.22177
0.211076 -0.251897 0.1495
0.26382 -0.347952 0.0808233
0.313595 -0.430459 0.0306609
0.353529 -0.478316 0.00909135
0.377274 -0.468589 0.0164784
0.38091 -0.389683 0.0463921
0.363225 -0.249582 0.0908649
0.327625 -0.0805809 0.138369
0.279313 0.0720639 0.183464
0.226322 0.170734 0.22307
0.17549 0.20525 0.245873
0.131799 0.176365 0.246793
0.0974982 0.108618 0.223361
0.0743502 0.0374324 0.17641
0.059121 0.17873 0.197918
0.0497087 0.186057 0.277829
0.0426193 0.153446 0.34609
0.0420243 0.0835434 0.384618
0.0527866 -0.00968686 0.372865
0.0780716 -0.111448 0.311507
0.115259 -0.207254 0.212469
0.160896 -0.297354 0.098246
0.209727 -0.380694 -0.00885974
0.253838 -0.445645 -0.0879281
0.288058 -0.474388 -0.12611
0.308182 -0.44587 -0.122876
0.312419 -0.350115 -0.0863756
0.301075 -0.196887 -0.0277096
0.278031 -0.0208672 0.0380448
0.24802 0.13116 0.101997
0.216991 0.221185 0.159157
0.188621 0.241815 0.196935
0.163921 0.19661 0.21061
0.142517 0.11379 0.197312
0.124263 0.0325713 0.158659
0.0799579 0.1942 0.220512
0.0775508 0.188361 0.303818
0.0790642 0.13505 0.369531
0.0863084 0.0437958 0.397746
0.102067 -0.0642261 0.367431
0.127046 -0.170382 0.280643
0.156862 -0.258642 0.152926
0.187675 -0.331139 0.00959836
0.215442 -0.390378 -0.12404
0.235237 -0.429575 -0.223397
0.245815 -0.435851 -0.273724
0.247257 -0.390966 -0.274259
0.240977 -0.286424 -0.234196
0.22933 -0.132474 -0.166675
0.216752 0.0367628 -0.088782
0.20627 0.175899 -0.0119415
0.200726 0.248728 0.0578133
0.199126 0.252179 0.108631
0.197626 0.192375 0.136519
0.192208 0.100034 0.138246
0.180485 0.0158396 0.11546
0.155866 0.186488 0.191918
0.174947 0.162891 0.262196
0.197651 0.0880583 0.314895
0.220772 -0.0210207 0.330169
0.243493 -0.13528 0.288813
0.263901 -0.233794 0.192149
0.276874 -0.30179 0.0540163
0.27904 -0.343956 -0.100028
0.269567 -0.368868 -0.243805
0.248918 -0.376373 -0.351985
0.221472 -0.359635 -0.408751
0.193076 -0.303721 -0.412753
0.168702 -0.201076 -0.373164
0.152587 -0.0608507 -0.303725
0.149051 0.0866152 -0.221662
0.15878 0.200402 -0.13977
0.179868 0.248149 -0.0641261
0.206052 0.231987 -0.00396816
0.228533 0.160956 0.0373933
0.239579 0.066229 0.056422
0.234632 -0.0126743 0.0547046
0.268435 0.151896 0.119873
0.316704 0.108179 0.16419
0.365555 0.0152776 0.196863
0.405301 -0.103325 0.2006
0.431262 -0.213258 0.158364
0.439561 -0.291835 0.0689546
0.425743 -0.327398 -0.0596839
0.388513 -0.329059 -0.204795
0.331992 -0.312788 -0.341792
0.263502 -0.286237 -0.44737
0.193617 -0.249015 -0.505293
0.13389 -0.189578 -0.512907
0.0919649 -0.100551 -0.478032
0.072838 0.0116478 -0.413572
0.079473 0.123517 -0.335223
0.109413 0.20128 -0.256056
0.155925 0.218237 -0.181631
0.207486 0.182309 -0.117431
0.251049 0.104542 -0.0659048
0.275888 0.0151745 -0.0308685
0.276682 -0.0502902 -0.0110064
0.387405 0.0915178 0.0203072
0.463383 0.0290858 0.0324537
0.533763 -0.0748946 0.0437162
0.583113 -0.192754 0.0402444
0.603704 -0.287557 0.0078915
0.59115 -0.335792 -0.0580658
0.543468 -0.330619 -0.159414
0.462773 -0.286598 -0.278612
0.359244 -0.227418 -0.394505
0.247208 -0.16878 -0.48782
0.142593 -0.116267 -0.542214
0.0609894 -0.0613141 -0.553073
0.0107228 0.00410018 -0.525881
-0.00436847 0.0775976 -0.471753
0.0157648 0.144667 -0.403711
0.0650822 0.180359 -0.334203
0.132631 0.164615 -0.268001
0.203054 0.110942 -0.206667
0.260854 0.0317004 -0.151279
0.294074 -0.0457515 -0.105345
0.298319 -0.0915757 -0.0679848
0.474494 0.013974 -0.0804172
0.566065 -0.0628319 -0.0990928
0.643837 -0.169406 -0.105885
0.688892 -0.276383 -0.110658
0.692421 -0.347512 -0.124696
0.651375 -0.359491 -0.156967
0.567883 -0.311201 -0.220116
0.448389 -0.222902 -0.30312
0.309192 -0.125123 -0.389414
0.170266 -0.0407325 -0.464603
0.050656 0.0199384 -0.512391
-0.0330949 0.0631878 -0.525888
-0.0747133 0.0983401 -0.507733
-0.0737521 0.127718 -0.466897
-0.0346164 0.146687 -0.41331
0.033065 0.13971 -0.358282
0.115514 0.0935053 -0.305899
0.195861 0.0262654 -0.254422
0.258595 -0.0488732 -0.202989
0.292878 -0.109014 -0.153875
0.296889 -0.131583 -0.106631
0.502374 -0.0678104 -0.15657
0.59083 -0.152674 -0.197512
0.656727 -0.253321 -0.215352
0.680989 -0.341237 -0.2162
0.656279 -0.383895 -0.20867
0.582754 -0.359248 -0.205532
0.467708 -0.272167 -0.228538
0.322133 -0.14797 -0.273099
0.167308 -0.0219075 -0.327625
0.0261845 0.0780345 -0.38248
-0.082199 0.13871 -0.421805
-0.144076 0.165139 -0.436691
-0.157954 0.168262 -0.427098
-0.12867 0.154901 -0.400187
-0.0660391 0.129594 -0.363141
0.0173804 0.0853531 -0.32592
0.106927 0.014917 -0.292044
0.18696 -0.0602666 -0.257219
0.244542 -0.126599 -0.217916
0.272295 -0.166589 -0.174048
0.272235 -0.165289 -0.125526
0.463846 -0.139679 -0.187847
0.529935 -0.225301 -0.237651
0.56579 -0.313179 -0.258079
0.555641 -0.377489 -0.252299
0.496042 -0.391567 -0.226372
0.391773 -0.335573 -0.195145
0.25541 -0.219823 -0.185144
0.101828 -0.0732599 -0.196777
-0.0449518 0.0670977 -0.223066
-0.162418 0.170866 -0.258358
-0.234864 0.224208 -0.288062
-0.254635 0.231781 -0.302311
-0.226881 0.20599 -0.299404
-0.16256 0.157216 -0.285703
-0.0766661 0.0971595 -0.26643
0.0166891 0.0255581 -0.250058
0.104146 -0.0601888 -0.239333
0.173812 -0.137057 -0.227437
0.217465 -0.191258 -0.207331
0.232854 -0.21097 -0.175549
0.226242 -0.188238 -0.132266
0.373452 -0.190783 -0.162715
0.403415 -0.270586 -0.206801
0.39781 -0.341272 -0.222418
0.346971 -0.381321 -0.210244
0.253077 -0.370813 -0.174179
0.126034 -0.292917 -0.129184
-0.0172297 -0.162445 -0.10028
-0.159408 -0.00979624 -0.0904692
-0.276759 0.12947 -0.0964973
-0.350752 0.225658 -0.115465
-0.371737 0.266288 -0.135224
-0.340157 0.256406 -0.146801
-0.268109 0.209303 -0.148642
-0.171951 0.137325 -0.147614
-0.0702164 0.0563053 -0.147741
0.0234353 -0.0298699 -0.155834
0.0989526 -0.12078 -0.173111
0.149929 -0.193575 -0.18885
0.174106 -0.234469 -0.192322
0.174781 -0.236731 -0.176413
0.161882 -0.19798 -0.141028
0.258281 -0.217705 -0.0878023
0.247647 -0.287101 -0.113943
0.199595 -0.338932 -0.120191
0.111386 -0.356356 -0.106159
-0.00871862 -0.326832 -0.0722029
-0.14612 -0.237539 -0.0300645
-0.281215 -0.106845 0.00162368
-0.396355 0.0360369 0.0199034
-0.471117 0.160064 0.0255078
-0.493634 0.239281 0.0195383
-0.461614 0.264411 0.0103689
-0.383528 0.241442 0.00386334
-0.276919 0.183709 -0.00063021
-0.161321 0.103571 -0.0115418
-0.0561438 0.0174933 -0.0322817
0.027467 -0.0693548 -0.0676071
0.0840141 -0.155594 -0.116101
0.112844 -0.219935 -0.162151
0.117499 -0.248735 -0.190647
0.105781 -0.239277 -0.189986
0.0892738 -0.193043 -0.160461
0.150308 -0.223051 0.0219806
0.104552 -0.279323 0.0214745
0.0228839 -0.313164 0.0258282
-0.090843 -0.311854 0.0359862
-0.223099 -0.269508 0.0546461
-0.356338 -0.178465 0.0771949
-0.470633 -0.0592345 0.0965684
-0.549657 0.0616042 0.11172
-0.579005 0.160151 0.121706
-0.55488 0.21656 0.126457
-0.482042 0.226176 0.129047
-0.375043 0.196308 0.129993
-0.254035 0.139478 0.124516
-0.138588 0.0662872 0.101824
-0.0457885 -0.00947121 0.0590409
0.0175402 -0.0845408 -0.00622531
0.0507171 -0.157611 -0.088936
0.0581328 -0.210589 -0.166013
0.0477784 -0.231129 -0.216916
0.029715 -0.218118 -0.227096
0.0147405 -0.173343 -0.197635
0.0739691 -0.211172 0.143642
0.00591383 -0.253837 0.170465
-0.0939342 -0.271719 0.183837
-0.216702 -0.256737 0.184966
-0.345466 -0.207608 0.17982
-0.461617 -0.12269 0.171301
-0.547179 -0.0232417 0.167546
-0.588909 0.0685589 0.171406
-0.579452 0.13653 0.180468
-0.523143 0.168498 0.193847
-0.430267 0.164958 0.208412
-0.318406 0.134571 0.217951
-0.207024 0.0883235 0.212416
-0.112513 0.0337404 0.178428
-0.0468034 -0.0206948 0.113899
-0.0113535 -0.0748951 0.0185457
-0.00237755 -0.129107 -0.0976614
-0.0121076 -0.169502 -0.201846
-0.0302632 -0.186079 -0.269472
-0.0471016 -0.176758 -0.284438
-0.0548726 -0.141537 -0.248697
0.0340492 -0.18776 0.242264
-0.0415595 -0.217619 0.289424
-0.143156 -0.222595 0.307478
-0.258852 -0.198973 0.299229
-0.370311 -0.148634 0.271394
-0.460579 -0.0750683 0.232948
-0.515047 0.00064493 0.20456
-0.524513 0.061812 0.194234
-0.488783 0.0996783 0.199521
-0.418705 0.109743 0.217973
-0.327514 0.0971844 0.241457
-0.232427 0.071623 0.25779
-0.149215 0.0420052 0.252383
-0.0887799 0.0121726 0.210485
-0.0564673 -0.0155988 0.130104
-0.0488954 -0.0451818 0.0133863
-0.0592939 -0.0790157 -0.124491
-0.0789451 -0.108101 -0.243573
-0.097204 -0.124315 -0.3176
-0.107062 -0.123576 -0.332714
-0.105014 -0.102971 -0.290339
0.0238736 -0.160298 0.297354
-0.0458935 -0.179488 0.355826
-0.135043 -0.175262 0.374451
-0.230912 -0.146968 0.356051
-0.31687 -0.098612 0.31076
-0.378399 -0.0381603 0.250239
-0.405448 0.0146417 0.203575
-0.393412 0.0483799 0.181528
-0.346965 0.0609455 0.18341
-0.280695 0.0541655 0.205245
-0.207941 0.0368204 0.235085
-0.142727 0.0189194 0.25657
-0.095453 0.00727582 0.252266
-0.0710369 0.00235772 0.20714
-0.0692229 0.00091896 0.119375
-0.0831407 -0.00485146 -0.00595385
-0.105329 -0.0196347 -0.150926
-0.127698 -0.0385461 -0.272014
-0.141373 -0.0561374 -0.34579
-0.142331 -0.0661517 -0.357063
-0.131127 -0.0625121 -0.308713
0.0285151 -0.133243 0.299458
-0.0274499 -0.144688 0.358606
-0.0959332 -0.134858 0.374611
-0.166306 -0.105012 0.349443
-0.224631 -0.0608379 0.29409
-0.259799 -0.0129205 0.224096
-0.266259 0.020955 0.169632
-0.243407 0.0338967 0.142551
-0.199219 0.0288859 0.142898
-0.14822 0.0118601 0.166798
-0.101914 -0.00637094 0.199951
-0.0696179 -0.0160599 0.224493
-0.0561025 -0.0122984 0.222546
-0.061338 0.00290363 0.179689
-0.0804788 0.022224 0.0953883
-0.105735 0.035434 -0.0239902
-0.130166 0.0357953 -0.160155
-0.148094 0.0247137 -0.272283
-0.154331 0.00575969 -0.337782
-0.147748 -0.0137019 -0.343407
-0.130649 -0.0252262 -0.293108
0.0332098 -0.106312 0.252031
-0.00599254 -0.113409 0.301707
-0.0518821 -0.101667 0.313052
-0.0969231 -0.0738466 0.286844
-0.131076 -0.0357804 0.232971
-0.146472 0.00126678 0.168024
-0.141262 0.0219599 0.117844
-0.117017 0.0226256 0.0929657
-0.0829119 0.00871177 0.0938555
-0.0509928 -0.0117427 0.117482
-0.0291605 -0.027747 0.14974
-0.022429 -0.0304819 0.174256
-0.0315754 -0.0165493 0.175238
-0.0529821 0.0106997 0.140218
-0.0806581 0.0416829 0.0696848
-0.106644 0.0655158 -0.0297393
-0.126384 0.0750731 -0.142044
-0.136836 0.0690874 -0.234399
-0.136336 0.0496632 -0.286347
-0.126033 0.0251067 -0.287534
-0.108914 0.00364351 -0.243015
0.224375 0.019017 -0.13874
0.264033 0.0105338 -0.164488
0.299942 -0.00106399 -0.166362
0.324763 -0.0147643 -0.14418
0.337525 -0.0281835 -0.104583
0.340636 -0.0420872 -0.0490839
0.33782 -0.0627476 0.00708964
0.332179 -0.0973009 0.0619679
0.326186 -0.148973 0.113183
0.320801 -0.213052 0.155183
0.315538 -0.274342 0.18579
0.307629 -0.313757 0.202308
0.292714 -0.315946 0.203388
0.267368 -0.27556 0.191861
0.230747 -0.201291 0.172021
0.184513 -0.114545 0.150029
0.132505 -0.0375792 0.131268
0.0803675 0.0168228 0.11718
0.0351329 0.0410072 0.102821
0.000530033 0.0395624 0.0856838
-0.0188646 0.0246068 0.0639765
0.250121 0.0441204 -0.122661
0.289193 0.041655 -0.137672
0.321573 0.0319211 -0.126904
0.341734 0.0150479 -0.0939072
0.35109 -0.00688356 -0.0492548
0.35459 -0.0317218 0.00589128
0.356753 -0.0634261 0.0546684
0.360462 -0.11015 0.0983948
0.366048 -0.175587 0.139375
0.372086 -0.252828 0.175293
0.375484 -0.323416 0.205118
0.372221 -0.364031 0.22556
0.357187 -0.356332 0.233221
0.326906 -0.294937 0.228879
0.281638 -0.193551 0.214788
0.224479 -0.0811175 0.196591
0.161163 0.0136868 0.180443
0.0991066 0.0745593 0.166818
0.0464638 0.092874 0.150182
0.00739344 0.0771208 0.127353
-0.0138912 0.0456142 0.0966552
0.231167 0.0811933 -0.0616529
0.258133 0.0869676 -0.053866
0.277505 0.078556 -0.0249874
0.28704 0.0553712 0.0169742
0.29088 0.0208803 0.0573123
0.296012 -0.0194889 0.0953329
0.306795 -0.0663488 0.117283
0.324959 -0.127177 0.130265
0.34822 -0.205733 0.143079
0.371062 -0.293209 0.159175
0.388545 -0.368523 0.180019
0.394948 -0.404853 0.202025
0.384883 -0.381761 0.219205
0.355558 -0.294903 0.228857
0.308538 -0.163775 0.229294
0.248406 -0.0252646 0.224349
0.182352 0.0854714 0.219264
0.118827 0.149211 0.21202
0.0658437 0.157273 0.196979
0.0268898 0.122718 0.170651
0.00520031 0.0709587 0.131402
0.177735 0.13159 0.0319062
0.186468 0.145205 0.0688407
0.188766 0.134649 0.117047
0.186822 0.0999422 0.163332
0.186581 0.047482 0.191203
0.195836 -0.0129196 0.197397
0.217248 -0.0766135 0.176504
0.250547 -0.150537 0.143274
0.290586 -0.238156 0.11441
0.329342 -0.329724 0.099706
0.360188 -0.403141 0.104463
0.376539 -0.429628 0.125014
0.373605 -0.387881 0.15261
0.349665 -0.275219 0.180334
0.307772 -0.116823 0.201646
0.253887 0.0435722 0.217356
0.195496 0.165489 0.230863
0.140634 0.227883 0.236542
0.0953075 0.222629 0.22886
0.0617004 0.16748 0.203379
0.0414245 0.0949211 0.159114
0.115995 0.19038 0.132926
0.108479 0.208087 0.198352
0.0972169 0.190027 0.262802
0.0878893 0.137964 0.309852
0.0875218 0.0640611 0.317601
0.102283 -0.0181526 0.283743
0.131985 -0.0973619 0.21257
0.174505 -0.17971 0.127028
0.223693 -0.269546 0.0505382
0.269994 -0.357252 -0.000279403
0.306664 -0.421722 -0.0159289
0.327723 -0.434055 0.000206562
0.329927 -0.373361 0.0370731
0.312967 -0.238857 0.0837442
0.281115 -0.0603365 0.128755
0.241227 0.113901 0.169122
0.199819 0.239751 0.205638
0.162684 0.296168 0.229314
0.132521 0.276249 0.233806
0.109147 0.201914 0.214659
0.0923075 0.111784 0.170998
0.0746039 0.246343 0.214166
0.0598153 0.26264 0.301744
0.0449859 0.230847 0.376473
0.0365439 0.157147 0.417854
0.0406015 0.0606851 0.40197
0.0610638 -0.0401885 0.327735
0.0944497 -0.128557 0.208913
0.136855 -0.210546 0.074385
0.181804 -0.292847 -0.0475349
0.220373 -0.367878 -0.133309
0.247972 -0.417589 -0.169848
0.261483 -0.41451 -0.159775
0.260617 -0.338825 -0.115623
0.247165 -0.191144 -0.0516254
0.22674 -0.00366019 0.0164216
0.205926 0.173413 0.0814445
0.188727 0.294699 0.141268
0.177186 0.340966 0.18445
0.169147 0.306865 0.204593
0.161138 0.217623 0.196829
0.150769 0.116036 0.160929
0.0927966 0.286407 0.245331
0.0872733 0.294706 0.340376