# vtk DataFile Version 2.0
Func
ASCII
DATASET RECTILINEAR_GRID
DIMENSIONS 21 21 21
X_COORDINATES 21 double
-4.7619
-4.28571
-3.80952
-3.33333
-2.85714
-2.38095
-1.90476
-1.42857
-0.952381
-0.47619
0
0.47619
0.952381
1.42857
1.90476
2.38095
2.85714
3.33333
3.80952
4.28571
4.7619
Y_COORDINATES 21 double
-4.7619
-4.28571
-3.80952
-3.33333
-2.85714
-2.38095
-1.90476
-1.42857
-0.952381
-0.47619
0
0.47619
0.952381
1.42857
1.90476
2.38095
2.85714
3.33333
3.80952
4.28571
4.7619
Z_COORDINATES 21 double
-4.7619
-4.28571
-3.80952
-3.33333
-2.85714
-2.38095
-1.90476
-1.42857
-0.952381
-0.47619
0
0.47619
0.952381
1.42857
1.90476
2.38095
2.85714
3.33333
3.80952
4.28571
4.7619
POINT_DATA 9261
SCALARS data double 3
LOOKUP_TABLE default
-0.146133 -0.0384568 0.0436944
-0.18031 -0.0244097 0.0499495
-0.214081 0.00073622 0.0467765
-0.242307 0.0293006 0.0336399
-0.261693 0.0497446 0.0160077
-0.271678 0.052181 -0.00306176
-0.272167 0.0338429 -0.0125778
-0.264109 -0.000483452 -0.0087481
-0.24965 -0.0397212 0.00784278
-0.23171 -0.0726627 0.0330993
-0.212557 -0.0905769 0.0574093
-0.192954 -0.093184 0.0724854
-0.172285 -0.0874394 0.0746116
-0.149642 -0.0847962 0.0671434
-0.122871 -0.0932665 0.0561916
-0.0910366 -0.119019 0.0498906
-0.0555516 -0.157863 0.0535714
-0.0193518 -0.19156 0.0618576
0.0143464 -0.212193 0.0710421
0.0412359 -0.209234 0.0724268
0.0593049 -0.180972 0.0646116
-0.181256 -0.024839 0.0613141
-0.223527 -0.00650675 0.0687138
-0.26337 0.02347 0.0617944
-0.293971 0.0558668 0.0424212
-0.311579 0.0773901 0.0185685
-0.317042 0.0750856 -0.00369599
-0.311947 0.0463448 -0.00929543
-0.298863 -0.00191246 0.00594867
-0.280922 -0.0552538 0.0391195
-0.261803 -0.099414 0.0826505
-0.242826 -0.122793 0.122119
-0.223493 -0.124906 0.145637
-0.201566 -0.115029 0.148633
-0.174851 -0.10881 0.136583
-0.141177 -0.116765 0.118776
-0.100315 -0.147088 0.107043
-0.0549662 -0.195368 0.109368
-0.00969717 -0.238913 0.117243
0.0304344 -0.265981 0.125235
0.0604322 -0.262855 0.122283
0.0785826 -0.226217 0.105245
-0.195741 -0.00324908 0.0735948
-0.240157 0.018798 0.0805133
-0.280441 0.0511314 0.0699048
-0.308865 0.0839317 0.0452224
-0.321873 0.10275 0.0167494
-0.321153 0.0927213 -0.00593675
-0.31018 0.0521577 -0.00532054
-0.29332 -0.0101385 0.0230644
-0.274941 -0.0768486 0.0741108
-0.258258 -0.130539 0.136907
-0.243581 -0.157775 0.19272
-0.228353 -0.15837 0.226459
-0.208413 -0.144184 0.232778
-0.180558 -0.134909 0.21892
-0.142568 -0.143615 0.196322
-0.0961673 -0.179761 0.180248
-0.0448818 -0.238391 0.180461
0.00524024 -0.291976 0.185895
0.0477396 -0.324104 0.189562
0.0774584 -0.31835 0.178665
0.0934972 -0.271162 0.149452
-0.187779 0.0220479 0.0760552
-0.228587 0.0475946 0.0812067
-0.263921 0.0806931 0.067592
-0.286388 0.111217 0.0405282
-0.292942 0.124734 0.0101283
-0.286339 0.105193 -0.010229
-0.271451 0.0521892 -0.00229991
-0.253566 -0.0232908 0.0383044
-0.237925 -0.101643 0.105078
-0.227134 -0.162833 0.185021
-0.219996 -0.192357 0.256348
-0.211903 -0.19071 0.301561
-0.197033 -0.172345 0.314471
-0.171317 -0.160606 0.303229
-0.133245 -0.170549 0.279758
-0.0859392 -0.212481 0.26142
-0.0335938 -0.280856 0.259532
0.0167265 -0.343311 0.261305
0.0579675 -0.37862 0.257269
0.085131 -0.369032 0.235388
0.0976807 -0.31128 0.191912
-0.161794 0.0473674 0.0657934
-0.194699 0.0761067 0.0680666
-0.221578 0.10823 0.0530585
-0.236119 0.134123 0.026441
-0.236848 0.139856 -0.00127501
-0.226362 0.110004 -0.0164288
-0.210474 0.0456007 -0.00158559
-0.194547 -0.0403054 0.0476709
-0.184158 -0.126489 0.124951
-0.180915 -0.191497 0.216865
-0.182387 -0.220864 0.300749
-0.182615 -0.216267 0.357941
-0.174852 -0.194519 0.381207
-0.154596 -0.181744 0.378128
-0.121277 -0.194058 0.359156
-0.07853 -0.242012 0.341445
-0.0306063 -0.319243 0.337022
0.0152016 -0.388606 0.332651
0.0520979 -0.425354 0.318722
0.0755003 -0.411133 0.283975
0.0848715 -0.343887 0.22582
-0.125733 0.0699921 0.040299
-0.149324 0.100381 0.0380459
-0.16696 0.129789 0.0227125
-0.174157 0.149061 0.000168949
-0.170513 0.146001 -0.0212014
-0.158978 0.106356 -0.0285517
-0.145273 0.0332641 -0.00757693
-0.13405 -0.0586712 0.0463123
-0.130154 -0.147717 0.128185
-0.134142 -0.212291 0.225619
-0.142889 -0.239042 0.317456
-0.150121 -0.23111 0.385299
-0.149199 -0.207136 0.420921
-0.135958 -0.194853 0.429876
-0.110923 -0.210652 0.419711
-0.0778851 -0.264584 0.405324
-0.0400263 -0.349298 0.398212
-0.00373471 -0.423967 0.386211
0.0254864 -0.460874 0.361176
0.0441523 -0.442173 0.314227
0.0515363 -0.367327 0.244611
-0.095982 0.0883533 0.00122764
-0.112341 0.118579 -0.00693289
-0.122929 0.143976 -0.0220095
-0.125389 0.155339 -0.0387045
-0.120309 0.143313 -0.0518166
-0.110499 0.0955113 -0.0505603
-0.100663 0.0177462 -0.0247945
-0.0945075 -0.0744034 0.0303859
-0.0958351 -0.160503 0.112279
-0.104185 -0.220005 0.2103
-0.116449 -0.241737 0.306181
-0.12711 -0.230446 0.382554
-0.13053 -0.205819 0.430094
-0.123519 -0.195776 0.451478
-0.107532 -0.216238 0.450851
-0.0866178 -0.275891 0.440215
-0.0620643 -0.366363 0.430102
-0.0381779 -0.444687 0.410679
-0.0183287 -0.481147 0.376203
-0.00430342 -0.459471 0.321019
0.00269889 -0.380156 0.245488
-0.078348 0.101568 -0.0518354
-0.08996 0.129851 -0.0677558
-0.096193 0.149739 -0.083171
-0.0962573 0.152836 -0.0936751
-0.0916059 0.132431 -0.0974403
-0.0847401 0.0792024 -0.0868346
-0.078951 0.00196053 -0.0567254
-0.0771593 -0.0843152 -0.00213028
-0.0814672 -0.161461 0.0766809
-0.0905444 -0.211446 0.171331
-0.101855 -0.226218 0.267208
-0.111511 -0.212076 0.348505
-0.115642 -0.18868 0.404873
-0.112598 -0.182513 0.435879
-0.104863 -0.208159 0.442607
-0.0960169 -0.272633 0.434249
-0.0858473 -0.366281 0.420443
-0.0758666 -0.446146 0.394942
-0.0662596 -0.482219 0.354857
-0.0569851 -0.460058 0.297456
-0.0496263 -0.380487 0.223853
-0.0715927 0.10948 -0.114798
-0.079906 0.134577 -0.141198
-0.0832839 0.147759 -0.158257
-0.0820233 0.142524 -0.162916
-0.0782982 0.114948 -0.156632
-0.074317 0.0597496 -0.135271
-0.0720655 -0.0120951 -0.0997496
-0.0734712 -0.0869831 -0.0456596
-0.078789 -0.150214 0.0287975
-0.0857576 -0.187556 0.117185
-0.0926296 -0.194647 0.208647
-0.0975778 -0.178994 0.289311
-0.0988526 -0.158934 0.348295
-0.0966205 -0.15781 0.38259
-0.0944376 -0.188101 0.391358
-0.0954316 -0.254891 0.381715
-0.0977792 -0.347723 0.362761
-0.100454 -0.425871 0.33305
-0.100784 -0.461496 0.292453
-0.0969455 -0.441694 0.240325
-0.089958 -0.36725 0.177814
-0.0719274 0.112691 -0.176462
-0.0775996 0.133482 -0.2147
-0.0784532 0.139564 -0.235134
-0.0758768 0.12668 -0.23558
-0.072856 0.0939757 -0.219863
-0.0713778 0.0405516 -0.187053
-0.0722911 -0.0214595 -0.144206
-0.0765016 -0.0808744 -0.0884169
-0.0823226 -0.127358 -0.0171801
-0.0862318 -0.151281 0.0637726
-0.086939 -0.151933 0.146449
-0.0844027 -0.137202 0.218956
-0.0789305 -0.12265 0.270865
-0.0726132 -0.126927 0.298192
-0.0702514 -0.159933 0.300312
-0.075053 -0.225029 0.283924
-0.0844271 -0.311716 0.258344
-0.0956564 -0.384041 0.227164
-0.103907 -0.418565 0.192225
-0.105926 -0.404179 0.153634
-0.101567 -0.340015 0.111269
-0.0711004 0.109861 -0.225029
-0.0732957 0.125992 -0.273989
-0.0709232 0.125499 -0.298199
-0.0664498 0.107048 -0.295667
-0.0638465 0.0725307 -0.271288
-0.0650353 0.0250414 -0.2268
-0.0699737 -0.023466 -0.174853
-0.0785007 -0.0651831 -0.115077
-0.0868018 -0.0945981 -0.0459694
-0.0895402 -0.106908 0.0258687
-0.0850039 -0.104369 0.0941506
-0.0739676 -0.0940619 0.149057
-0.0582957 -0.0873066 0.181991
-0.0419507 -0.0967898 0.190258
-0.0313274 -0.12958 0.176016
-0.0307173 -0.187811 0.147504
-0.0382429 -0.262048 0.115014
-0.0510649 -0.323609 0.0865009
-0.0634956 -0.355361 0.0640322
-0.0714591 -0.34799 0.0466957
-0.0730499 -0.298572 0.0317738
-0.0636791 0.0995784 -0.249482
-0.0610957 0.111209 -0.305203
-0.0546929 0.105943 -0.331625
-0.0479855 0.0853802 -0.326083
-0.0460241 0.0534086 -0.293334
-0.0509201 0.0159763 -0.237396
-0.061948 -0.0165573 -0.175241
-0.0777797 -0.0404681 -0.109952
-0.0922469 -0.0550705 -0.0428018
-0.097587 -0.0599719 0.0172699
-0.0905103 -0.0591456 0.0646508
-0.0712393 -0.0574704 0.0918532
-0.0424378 -0.0607097 0.0937111
-0.00977015 -0.0747478 0.0713124
0.0183664 -0.10379 0.0321036
0.0353016 -0.149402 -0.0123794
0.0404065 -0.204505 -0.0504378
0.0347296 -0.249824 -0.0714493
0.0231452 -0.275942 -0.075314
0.00981072 -0.275452 -0.0658433
-0.00114588 -0.243261 -0.049407
-0.050298 0.0813579 -0.24434
-0.0424117 0.0891483 -0.30059
-0.0319329 0.0817239 -0.325753
-0.0233011 0.0630497 -0.315701
-0.0225504 0.0380415 -0.274226
-0.0322925 0.0139075 -0.207363
-0.0513269 -0.00179927 -0.134598
-0.077088 -0.00971552 -0.0631397
-0.100979 -0.013581 0.00148123
-0.112486 -0.0165138 0.0469608
-0.105689 -0.0226935 0.0675771
-0.0788838 -0.0335038 0.0584954
-0.0347031 -0.0482681 0.0195271
0.0197632 -0.0658032 -0.0421626
0.0737835 -0.087569 -0.11198
0.117119 -0.115246 -0.173925
0.14501 -0.145322 -0.214863
0.154935 -0.169355 -0.223959
0.149301 -0.186271 -0.205251
0.131643 -0.190836 -0.166996
0.108472 -0.175873 -0.11981
-0.0391317 0.0558955 -0.212847
-0.0275831 0.0605374 -0.262696
-0.014145 0.0537514 -0.282026
-0.00424111 0.0406257 -0.264961
-0.00457671 0.0260919 -0.213952
-0.0185491 0.0169394 -0.136664
-0.0448073 0.0170938 -0.0533198
-0.0797951 0.0217074 0.0244407
-0.112878 0.0234611 0.0859657
-0.131038 0.0169054 0.115248
-0.125258 -0.000863386 0.105991
-0.0909878 -0.0267817 0.0562703
-0.030121 -0.0534635 -0.0280288
0.0492411 -0.0729916 -0.132166
0.134088 -0.0843238 -0.233722
0.209995 -0.0898001 -0.3119
0.267164 -0.0905339 -0.352518
0.298378 -0.0893717 -0.34726
0.30231 -0.0932074 -0.30567
0.281333 -0.0990654 -0.241084
0.243672 -0.0996273 -0.168483
-0.0373337 0.0263908 -0.166185
-0.0245866 0.0286986 -0.204524
-0.00993209 0.0248029 -0.21435
0.000718916 0.0195761 -0.188405
0.000435187 0.0167513 -0.127931
-0.0150483 0.0216045 -0.0416083
-0.0446372 0.0341931 0.051218
-0.0844103 0.0458719 0.134751
-0.122632 0.0470405 0.193212
-0.144662 0.0313454 0.207443
-0.138785 -0.00152179 0.170374
-0.0975078 -0.0435587 0.0829276
-0.0215256 -0.0810869 -0.0428566
0.0806483 -0.10041 -0.184676
0.194397 -0.0984317 -0.313124
0.301519 -0.0785992 -0.40335
0.387865 -0.0468194 -0.44079
0.441084 -0.0172559 -0.421486
0.455445 -0.00355604 -0.360942
0.432071 -0.00618692 -0.277503
0.380674 -0.0179938 -0.189364
-0.0532068 -0.00123191 -0.120445
-0.0428396 -0.000842176 -0.145699
-0.0290383 -0.00113446 -0.145121
-0.0173885 0.00152048 -0.110456
-0.0145262 0.00934963 -0.0418804
-0.0257156 0.0246177 0.0516639
-0.0508605 0.0438204 0.152566
-0.0864578 0.0561316 0.24162
-0.121345 0.0507014 0.298585
-0.14073 0.0216423 0.302281
-0.131393 -0.0279157 0.244802
-0.0835488 -0.0851683 0.129482
0.00349776 -0.131197 -0.0263603
0.121629 -0.147961 -0.194101
0.255859 -0.13087 -0.339467
0.386182 -0.0838794 -0.434941
0.494508 -0.0190878 -0.466351
0.564797 0.0403793 -0.435484
0.58744 0.0752815 -0.363341
0.561973 0.0808881 -0.271673
0.498869 0.0626464 -0.180435
-0.0873061 -0.0242758 -0.0885101
-0.0823805 -0.0255311 -0.102701
-0.0708049 -0.0226632 -0.0931034
-0.057243 -0.013356 -0.0516814
-0.0476738 0.00244519 0.0224808
-0.0482378 0.0241144 0.121094
-0.0604329 0.0446261 0.228282
-0.0822053 0.0521154 0.322415
-0.104393 0.0361903 0.380141
-0.113631 -0.00778492 0.379652
-0.0967418 -0.0730762 0.312349
-0.0428759 -0.142831 0.183266
0.0498847 -0.194422 0.0133841
0.174437 -0.207092 -0.164609
0.317185 -0.174773 -0.314437
0.457403 -0.102914 -0.407589
0.575344 -0.00885997 -0.431254
0.65339 0.0780841 -0.393441
0.679506 0.13513 -0.318531
0.65204 0.152954 -0.229657
0.580227 0.133523 -0.146994
-0.126501 -0.0394428 -0.0727575
-0.128394 -0.0422628 -0.0787754
-0.119627 -0.0378221 -0.0625546
-0.1037 -0.0248259 -0.0178933
-0.0857775 -0.00481584 0.0565334
-0.0721566 0.0185926 0.15474
-0.0662929 0.0361959 0.262425
-0.0682905 0.0356878 0.357083
-0.0719178 0.00837852 0.414719
-0.0666103 -0.0487097 0.415077
-0.0409373 -0.12583 0.349461
0.0155217 -0.203439 0.223615
0.105468 -0.257087 0.0594852
0.223338 -0.265029 -0.109968
0.358317 -0.220332 -0.249971
0.491851 -0.129379 -0.33369
0.60497 -0.0132 -0.350598
0.680755 0.0957298 -0.312879
0.705829 0.172412 -0.245345
0.678042 0.203793 -0.168943
0.603755 0.187715 -0.102487
-0.153889 -0.0455657 -0.0658211
-0.162711 -0.0494338 -0.0680554
-0.157965 -0.0447351 -0.0506791
-0.141867 -0.0306747 -0.0091139
-0.118012 -0.0103844 0.0582144
-0.092027 0.0109376 0.147718
-0.0684785 0.0224488 0.247157
-0.0495137 0.0128643 0.335957
-0.033217 -0.0246794 0.391384
-0.0126084 -0.0910233 0.396301
0.0205064 -0.174385 0.342424
0.0746527 -0.254196 0.235028
0.152814 -0.30622 0.0941942
0.251631 -0.309547 -0.0503957
0.364605 -0.257365 -0.168574
0.477072 -0.155986 -0.237329
0.573381 -0.0278982 -0.248264
0.639017 0.0934285 -0.21573
0.661107 0.183719 -0.160536
0.636539 0.227212 -0.102525
0.568364 0.218509 -0.0562333
-0.159896 -0.0429328 -0.0627182
-0.173104 -0.0472074 -0.0647523
-0.171835 -0.0432557 -0.0509459
-0.157058 -0.0309073 -0.0173738
-0.130721 -0.0134911 0.0374743
-0.097253 0.00295553 0.111737
-0.0616048 0.00733104 0.195749
-0.0271319 -0.0101567 0.272417
0.00413401 -0.0545768 0.322632
0.0349748 -0.124699 0.332866
0.0701978 -0.207997 0.295788
0.115824 -0.284564 0.215421
0.174843 -0.332113 0.108032
0.246793 -0.331938 -0.00224403
0.328602 -0.277845 -0.0920069
0.410927 -0.175736 -0.14293
0.483159 -0.0469202 -0.149041
0.534269 0.0766682 -0.12381
0.553295 0.172558 -0.0840146
0.536075 0.224069 -0.0453996
0.48185 0.224066 -0.0186305
-0.140997 -0.0312953 -0.0569971
-0.155011 -0.0353989 -0.0612991
-0.156109 -0.0330021 -0.0538319
-0.14434 -0.0236352 -0.0312519
-0.120178 -0.0103726 0.00807837
-0.0864795 0.000242804 0.0627786
-0.047562 -0.00227659 0.126039
-0.00751501 -0.0256485 0.185027
0.0294263 -0.0730907 0.226278
0.0629332 -0.141784 0.239801
0.0943983 -0.219513 0.219771
0.127572 -0.288299 0.168688
0.165526 -0.329035 0.0979812
0.208874 -0.326371 0.024937
0.258449 -0.274572 -0.0342815
0.309129 -0.179154 -0.0673333
0.355081 -0.0598008 -0.0699381
0.389601 0.0551985 -0.0524766
0.405157 0.146908 -0.0272359
0.397038 0.199209 -0.00543959
0.361853 0.205845 0.00728142
-0.161262 -0.06907 0.0529899
-0.195138 -0.0551197 0.0551955
-0.228337 -0.023963 0.0452509
-0.256158 0.013109 0.0248187
-0.276233 0.039627 0.00246542
-0.288578 0.0403257 -0.0189602
-0.292461 0.00885742 -0.0272081
-0.288233 -0.0481753 -0.0188099
-0.276479 -0.114236 0.00377083
-0.259323 -0.1713 0.0339042
-0.238773 -0.204103 0.0593008
-0.21636 -0.209157 0.0705223
-0.192306 -0.194346 0.0648881
-0.166203 -0.175177 0.0493589
-0.13527 -0.166107 0.0335951
-0.0986079 -0.179014 0.0294754
-0.0574387 -0.211976 0.0427674
-0.0153873 -0.242887 0.065261
0.0242541 -0.26329 0.0881229
0.0561766 -0.259413 0.0990768
0.0772157 -0.225533 0.0930487
-0.198245 -0.055708 0.0689607
-0.239798 -0.0373095 0.0699181
-0.277695 -0.00063124 0.0533576
-0.305794 0.0410766 0.0242543
-0.321698 0.0688977 -0.00522721
-0.327533 0.0635372 -0.0293034
-0.324739 0.0187599 -0.0315144
-0.315778 -0.0561445 -0.00833675
-0.302196 -0.140119 0.0347289
-0.286592 -0.211254 0.0862721
-0.269233 -0.250537 0.128194
-0.249836 -0.254163 0.146878
-0.226479 -0.232941 0.13902
-0.196896 -0.207476 0.11478
-0.158012 -0.195853 0.0885713
-0.109748 -0.21296 0.0773524
-0.0552978 -0.256634 0.0902437
-0.000623664 -0.29917 0.115201
0.0482774 -0.327674 0.141038
0.0849022 -0.324274 0.151516
0.10626 -0.280778 0.13861
-0.212021 -0.0301614 0.0750448
-0.254611 -0.00742517 0.0732667
-0.290931 0.0319733 0.051095
-0.314149 0.0742398 0.0155625
-0.322526 0.0987856 -0.0182934
-0.319586 0.084041 -0.0411032
-0.309232 0.0251534 -0.0342033
-0.296446 -0.0662984 0.00576743
-0.284349 -0.165608 0.0704193
-0.274614 -0.247245 0.144021
-0.265848 -0.289978 0.203448
-0.254673 -0.290533 0.231481
-0.236324 -0.263024 0.224259
-0.206819 -0.233023 0.194533
-0.162679 -0.221724 0.159996
-0.106194 -0.245741 0.142492
-0.0420044 -0.30222 0.153366
0.021504 -0.357455 0.177482
0.0758871 -0.393228 0.201961
0.113653 -0.388132 0.207581
0.132649 -0.333275 0.184614
-0.202121 0.00213688 0.068726
-0.239523 0.0295449 0.0636856
-0.26859 0.0698853 0.0380873
-0.283086 0.109278 0.000639661
-0.282205 0.127101 -0.0340234
-0.270957 0.10097 -0.0522567
-0.255332 0.0279892 -0.0354287
-0.241704 -0.0774437 0.0194369
-0.234347 -0.188186 0.101997
-0.234164 -0.276171 0.194257
-0.237555 -0.319303 0.269733
-0.237925 -0.315587 0.308631
-0.227843 -0.282477 0.306352
-0.201748 -0.24986 0.277003
-0.156801 -0.240891 0.23913
-0.0965983 -0.273175 0.217598
-0.0274724 -0.342722 0.225829
0.040241 -0.40994 0.246826
0.0963284 -0.451129 0.265042
0.132917 -0.443186 0.26127
0.148056 -0.37736 0.22555
-0.174325 0.0361694 0.0490818
-0.202324 0.0683476 0.0410395
-0.221168 0.107595 0.0154596
-0.225762 0.141115 -0.0194478
-0.217156 0.149196 -0.0493651
-0.2004 0.110933 -0.0601412
-0.183012 0.0259618 -0.0347557
-0.171561 -0.088981 0.0294286
-0.171011 -0.205166 0.122466
-0.181241 -0.293811 0.226456
-0.196938 -0.333616 0.314319
-0.209176 -0.324644 0.365177
-0.208744 -0.287401 0.373287
-0.189114 -0.254872 0.352025
-0.148413 -0.250802 0.318087
-0.0907808 -0.292622 0.295959
-0.0231066 -0.374921 0.300238
0.0432094 -0.452259 0.314035
0.0974012 -0.497008 0.321586
0.131448 -0.485355 0.304492
0.143349 -0.410089 0.254417
-0.135772 0.0688063 0.0166535
-0.153776 0.104128 0.00535408
-0.162745 0.139962 -0.0176469
-0.159358 0.164945 -0.0450575
-0.145711 0.161722 -0.0660549
-0.127258 0.111918 -0.0674729
-0.111764 0.0185663 -0.0361274
-0.105125 -0.0999097 0.0310238
-0.111798 -0.214707 0.126443
-0.130769 -0.298078 0.234084
-0.155844 -0.331062 0.329239
-0.17715 -0.316268 0.391507
-0.184999 -0.276613 0.413736
-0.172962 -0.246682 0.406316
-0.140497 -0.249586 0.382115
-0.0917043 -0.301503 0.362413
-0.0327814 -0.395185 0.361383
0.025497 -0.480815 0.364246
0.0731033 -0.527481 0.357547
0.102932 -0.512062 0.32604
0.112727 -0.429753 0.26414
-0.10509 0.0967481 -0.0249456
-0.116763 0.132862 -0.0395639
-0.119727 0.163461 -0.0584889
-0.112788 0.177932 -0.0762212
-0.0985902 0.16298 -0.0868836
-0.0822461 0.10354 -0.0797278
-0.0705842 0.00662686 -0.0457761
-0.0683512 -0.108107 0.0190792
-0.0795041 -0.214269 0.110779
-0.102283 -0.286476 0.216338
-0.130656 -0.309493 0.314983
-0.155347 -0.288689 0.387445
-0.167401 -0.248465 0.424657
-0.161437 -0.223263 0.432623
-0.138084 -0.234704 0.419415
-0.101844 -0.296322 0.402281
-0.0566942 -0.39924 0.394505
-0.011307 -0.490917 0.384922
0.0265077 -0.538604 0.363994
0.0513887 -0.520971 0.32094
0.0605871 -0.43545 0.252589
-0.0878493 0.117907 -0.0767122
-0.0970876 0.15205 -0.095881
-0.098358 0.175077 -0.111166
-0.0917297 0.178232 -0.119238
-0.0801437 0.1521 -0.119529
-0.0679158 0.0860833 -0.104624
-0.0601652 -0.00831921 -0.0700909
-0.0608582 -0.112267 -0.0107503
-0.0726181 -0.20287 0.0733033
-0.0932839 -0.258752 0.172645
-0.117843 -0.269501 0.271191
-0.139017 -0.243146 0.351151
-0.14979 -0.204307 0.401294
-0.146762 -0.185407 0.422632
-0.131999 -0.205696 0.418568
-0.109497 -0.27557 0.402278
-0.0814309 -0.384223 0.386392
-0.0528428 -0.479235 0.364932
-0.0278006 -0.52747 0.332647
-0.00909692 -0.510294 0.283577
-0.00025187 -0.426339 0.216778
-0.0810643 0.13031 -0.136316
-0.0899272 0.160043 -0.163043
-0.0918401 0.173486 -0.176696
-0.0874992 0.165038 -0.176508
-0.0796626 0.129278 -0.166753
-0.0718095 0.0610152 -0.14358
-0.0674227 -0.0251024 -0.108082
-0.0692732 -0.111925 -0.0545184
-0.078472 -0.181419 0.0206725
-0.0925124 -0.217556 0.111283
-0.107865 -0.215317 0.205844
-0.120126 -0.184885 0.288265
-0.12496 -0.149538 0.345494
-0.12143 -0.137741 0.374011
-0.113156 -0.165703 0.373747
-0.10354 -0.240327 0.354611
-0.0924189 -0.349608 0.328917
-0.0812843 -0.443842 0.297448
-0.0703682 -0.492427 0.259249
-0.0597722 -0.478753 0.212061
-0.0525024 -0.402333 0.156372
-0.0790798 0.134303 -0.193745
-0.0877628 0.157341 -0.230414
-0.0903824 0.160402 -0.245611
-0.0882429 0.141005 -0.240175
-0.0839847 0.098192 -0.221866
-0.0802501 0.0323876 -0.189995
-0.0789376 -0.0401265 -0.151192
-0.0815068 -0.105156 -0.100237
-0.08737 -0.150527 -0.0316284
-0.093301 -0.166352 0.0500495
-0.0970087 -0.152849 0.136668
-0.0969276 -0.121271 0.213768
-0.0916253 -0.0918138 0.267598
-0.0828018 -0.0872135 0.292017
-0.0758435 -0.120275 0.286018
-0.0740116 -0.194644 0.258276
-0.0755437 -0.298072 0.221589
-0.0790502 -0.386557 0.183609
-0.0814729 -0.434543 0.146997
-0.0804033 -0.427776 0.111497
-0.0773558 -0.364418 0.0771536
-0.0727873 0.128193 -0.238044
-0.0793809 0.143513 -0.284576
-0.0809951 0.13672 -0.303085
-0.0797326 0.108986 -0.294864
-0.0784423 0.0634473 -0.269236
-0.0790568 0.00550388 -0.22791
-0.0820861 -0.0488278 -0.182634
-0.0875506 -0.0895405 -0.130131
-0.0928449 -0.11082 -0.0652825
-0.0933092 -0.109034 0.00680721
-0.0869208 -0.0887178 0.0797528
-0.0739493 -0.0606469 0.140812
-0.0554806 -0.0401149 0.177294
-0.035699 -0.0426389 0.183372
-0.0220933 -0.0774198 0.1604
-0.0187522 -0.145465 0.118372
-0.0239227 -0.23558 0.0713555
-0.034999 -0.312411 0.0328356
-0.0470845 -0.357579 0.0070619
-0.0559127 -0.359189 -0.00677548
-0.0606887 -0.313479 -0.0111444
-0.0572112 0.110674 -0.258153
-0.059041 0.118283 -0.311335
-0.0574808 0.104243 -0.33258
-0.0556765 0.0729885 -0.322274
-0.0570652 0.030731 -0.289485
-0.0631376 -0.0136583 -0.237736
-0.0732383 -0.0464165 -0.18283
-0.0857787 -0.0627257 -0.124887
-0.0957662 -0.0631001 -0.0617367
-0.0962369 -0.0495276 -0.0011535
-0.0840754 -0.0292507 0.0508346
-0.0597585 -0.0107477 0.0835759
-0.0260834 -0.00272403 0.0876335
0.0106731 -0.0124583 0.0609044
0.0405917 -0.045477 0.0105035
0.0574135 -0.101005 -0.0498193
0.0607871 -0.170353 -0.104328
0.052296 -0.229279 -0.136057
0.0366406 -0.268075 -0.141885
0.0189596 -0.277365 -0.126038
0.00297635 -0.251136 -0.0953897
-0.0353487 0.0823959 -0.248202
-0.0308087 0.0835369 -0.302175
-0.0248323 0.0662652 -0.323233
-0.0217016 0.0373076 -0.309599
-0.0256765 0.00457891 -0.268709
-0.0382158 -0.0215512 -0.205549
-0.0577843 -0.0312304 -0.138329
-0.081112 -0.025283 -0.0718259
-0.100627 -0.0100648 -0.00912359
-0.106515 0.007967 0.0376311
-0.0932492 0.0207411 0.0617096
-0.0597702 0.0237474 0.0550707
-0.00957269 0.016033 0.0137607
0.0495447 -0.00106725 -0.0573085
0.105036 -0.0293719 -0.142525
0.147178 -0.0672486 -0.222598
0.171516 -0.109763 -0.28018
0.17637 -0.145358 -0.298086
0.164104 -0.173569 -0.277188
0.139649 -0.187851 -0.227633
0.109872 -0.179809 -0.162043
-0.0191496 0.0454902 -0.211779
-0.0095641 0.0418781 -0.259793
0.000364474 0.0258584 -0.276305
0.00509033 0.00479126 -0.256777
-0.000441835 -0.0131785 -0.206211
-0.0181315 -0.0182494 -0.13062
-0.0460605 -0.00561911 -0.0490228
-0.0796441 0.0182777 0.0283582
-0.109092 0.042268 0.0916414
-0.121876 0.0568684 0.12344
-0.109391 0.0550697 0.115684
-0.0677974 0.0376496 0.0634144
-0.00034525 0.011942 -0.0301205
0.0843446 -0.0123569 -0.150673
0.171355 -0.0333404 -0.272852
0.246803 -0.0493555 -0.371076
0.300888 -0.0603612 -0.426892
0.327088 -0.0680512 -0.426533
0.323727 -0.0806848 -0.376777
0.29459 -0.0946703 -0.2949
0.249111 -0.101773 -0.200001
-0.0186298 0.00544088 -0.160909
-0.00701446 -0.000901973 -0.198254
0.00507482 -0.0119205 -0.206726
0.0114657 -0.0213098 -0.179255
0.00664779 -0.0223176 -0.118363
-0.0121107 -0.00708984 -0.0306309
-0.043108 0.0239138 0.0656948
-0.0813765 0.0588877 0.154872
-0.115951 0.083419 0.219821
-0.132563 0.086702 0.238204
-0.119883 0.0644873 0.200375
-0.0710217 0.0236292 0.104602
0.0117321 -0.0205135 -0.0381575
0.119782 -0.0508208 -0.203855
0.236824 -0.0618639 -0.357929
0.345242 -0.052694 -0.469173
0.430663 -0.0281513 -0.518916
0.480762 -0.00349834 -0.499089
0.488674 0.00549847 -0.423569
0.45679 -0.00212135 -0.317202
0.396629 -0.01867 -0.204488
-0.044625 -0.0298927 -0.113427
-0.0358512 -0.0374107 -0.139205
-0.0243605 -0.0419276 -0.139343
-0.0156608 -0.0389072 -0.1043
-0.0153275 -0.0235546 -0.034013
-0.0272988 0.0080006 0.0647113
-0.0512392 0.0501911 0.175123
-0.0828445 0.0880084 0.276603
-0.111882 0.104955 0.345423
-0.12405 0.0905556 0.355413
-0.106541 0.0445178 0.295346
-0.0500815 -0.0201657 0.16644
0.04434 -0.0811415 -0.0133151
0.169084 -0.115376 -0.21117
0.307991 -0.114358 -0.38571
0.441855 -0.0773153 -0.501636
0.551686 -0.0161746 -0.54091
0.621043 0.043335 -0.503138
0.638676 0.0790313 -0.409815
0.604544 0.0842027 -0.291289
0.531327 0.0640421 -0.175345
-0.0965707 -0.0564602 -0.0829856
-0.0949988 -0.0639878 -0.100133
-0.0861194 -0.062156 -0.0938687
-0.0739732 -0.0480619 -0.0536613
-0.0636717 -0.0196867 0.0233377
-0.0606103 0.0228642 0.130815
-0.0665234 0.0691402 0.253307
-0.0793104 0.102131 0.366349
-0.0909877 0.105733 0.441263
-0.0891074 0.0706984 0.449705
-0.0610531 0.00108095 0.379125
0.00345474 -0.0847593 0.233026
0.104692 -0.15921 0.0346939
0.23657 -0.195235 -0.17698
0.385218 -0.181044 -0.357216
0.530461 -0.118058 -0.468542
0.651607 -0.0237789 -0.494771
0.730213 0.0684437 -0.444169
0.752198 0.132321 -0.343752
0.715827 0.155393 -0.226459
0.632136 0.137665 -0.121294
-0.154363 -0.0704714 -0.0717809
-0.161955 -0.0775023 -0.0834668
-0.156673 -0.0712491 -0.0730024
-0.140762 -0.0499634 -0.031029
-0.118669 -0.0138338 0.0469532
-0.0965315 0.0330991 0.156652
-0.0786883 0.0771969 0.283619
-0.0660749 0.100399 0.401421
-0.0538743 0.0885971 0.479647
-0.0329823 0.0344293 0.490865
0.00718484 -0.054224 0.422176
0.0762681 -0.155209 0.278415
0.175429 -0.237965 0.0850058
0.300501 -0.273627 -0.117763
0.441379 -0.248122 -0.285981
0.580219 -0.164562 -0.383637
0.697028 -0.0444444 -0.397875
0.773788 0.0745302 -0.343245
0.795191 0.163804 -0.248603
0.758355 0.205933 -0.144744
0.670887 0.195181 -0.0597607
-0.196418 -0.0709812 -0.0716786
-0.213317 -0.0770696 -0.0822517
-0.2132 -0.0685418 -0.07278
-0.196592 -0.0441831 -0.0351468
-0.166229 -0.00627265 0.035991
-0.127985 0.0388111 0.138228
-0.0876176 0.0753341 0.25852
-0.0487614 0.0861783 0.371856
-0.0115023 0.0595506 0.448763
0.0291656 -0.00925781 0.465189
0.0801095 -0.109559 0.408912
0.148656 -0.21746 0.284954
0.2363 -0.302108 0.117538
0.341293 -0.335241 -0.0560629
0.458857 -0.302325 -0.196887
0.575104 -0.206598 -0.273883
0.673848 -0.0715935 -0.277313
0.739756 0.0634477 -0.225308
0.758254 0.170836 -0.143735
0.725124 0.229625 -0.0615931
0.644013 0.229689 -0.00218741
-0.209518 -0.0601014 -0.075181
-0.232196 -0.0648883 -0.0874221
-0.236374 -0.0561354 -0.0828399
-0.221167 -0.0332064 -0.0540664
-0.187447 0.00113203 0.00426775
-0.140056 0.0392833 0.0908251
-0.0850981 0.0653365 0.19474
-0.0276898 0.0642265 0.294435
0.0277572 0.0263874 0.364566
0.0813073 -0.0500308 0.385583
0.136103 -0.152989 0.346892
0.196556 -0.259031 0.252826
0.264245 -0.339429 0.123884
0.340567 -0.368548 -0.00864856
0.424394 -0.332496 -0.113992
0.507586 -0.234695 -0.167437
0.580029 -0.0972293 -0.162511
0.630046 0.0417918 -0.116996
0.645629 0.157137 -0.053448
0.621484 0.226815 0.00457104
0.556368 0.237975 0.0391188
-0.187952 -0.0402168 -0.0738593
-0.210941 -0.0437589 -0.0885595
-0.217313 -0.0366008 -0.0899282
-0.20551 -0.0177625 -0.07195
-0.174735 0.010324 -0.029725
-0.128073 0.0393894 0.0355691
-0.0708294 0.0545276 0.115534
-0.00870412 0.0434581 0.193507
0.0516606 -0.000795022 0.250913
0.107135 -0.0778826 0.273139
0.15703 -0.175553 0.252059
0.203495 -0.272411 0.190872
0.248622 -0.34353 0.104774
0.294256 -0.367292 0.0170251
0.343399 -0.330986 -0.0508852
0.392192 -0.238434 -0.0819818
0.436075 -0.110048 -0.0722434
0.468148 0.0201157 -0.036215
0.480777 0.131501 0.00803508
0.468039 0.202685 0.0437357
0.425234 0.221432 0.0596166
-0.146394 -0.103987 0.0607753
-0.171038 -0.0925419 0.0578326
-0.195304 -0.056907 0.0407827
-0.216364 -0.0117993 0.0138474
-0.233572 0.0211729 -0.0115274
-0.247647 0.0204306 -0.032057
-0.256867 -0.0255817 -0.0347211
-0.260178 -0.108559 -0.0176454
-0.255625 -0.205555 0.0136691
-0.24318 -0.290835 0.0490384
-0.22497 -0.341079 0.0736022
-0.203221 -0.34802 0.0771478
-0.179507 -0.319355 0.0588648
-0.154871 -0.27448 0.030204
-0.126856 -0.235324 0.00569829
-0.0932328 -0.22127 0.00183703
-0.0555188 -0.234989 0.0250361
-0.0164032 -0.254529 0.0642885
0.021659 -0.270449 0.104429
0.0532976 -0.266739 0.12827
0.0746206 -0.233849 0.126437
-0.178381 -0.0970807 0.0703027
-0.207665 -0.0816371 0.062443
-0.23289 -0.0398427 0.0355073
-0.250443 0.011242 -0.00225742
-0.260154 0.0466166 -0.0350972
-0.265579 0.0399611 -0.0569875
-0.26772 -0.0205863 -0.0507702
-0.267722 -0.123705 -0.0152022
-0.264487 -0.241099 0.0402859
-0.257811 -0.3423 0.0994083
-0.247639 -0.399367 0.140687
-0.233626 -0.403393 0.149395
-0.214564 -0.365285 0.124563
-0.189261 -0.310161 0.0820704
-0.154416 -0.264821 0.0429708
-0.108468 -0.252507 0.0304503
-0.0554001 -0.276123 0.0548511
-0.000836636 -0.307743 0.100686
0.0493577 -0.333277 0.149611
0.0879628 -0.331941 0.17872
0.110779 -0.290956 0.174369
-0.189309 -0.0749833 0.0647371
-0.217349 -0.0550441 0.0507141
-0.237758 -0.00999606 0.015719
-0.246678 0.0425234 -0.0293887
-0.245123 0.0753279 -0.0657901
-0.238777 0.0596267 -0.0842299
-0.231841 -0.0149218 -0.0657089
-0.228561 -0.134602 -0.00990986
-0.229711 -0.267079 0.0701753
-0.233672 -0.378007 0.153069
-0.23799 -0.43696 0.211756
-0.238061 -0.435686 0.227738
-0.228762 -0.38882 0.199877
-0.206335 -0.327015 0.147514
-0.166488 -0.280709 0.0962702
-0.110031 -0.275145 0.0757478
-0.0431822 -0.312642 0.0989857
0.0249733 -0.358896 0.146817
0.0849116 -0.394301 0.198983
0.12743 -0.393928 0.228518
0.148812 -0.343727 0.218339
-0.179814 -0.0430069 0.0445178
-0.20139 -0.0177112 0.0250165
-0.212344 0.0286511 -0.0138476
-0.209547 0.0785582 -0.0601257
-0.195412 0.104685 -0.0956434
-0.177796 0.0780734 -0.106794
-0.163872 -0.00922076 -0.0758478
-0.159778 -0.14049 -0.00317507
-0.167864 -0.281234 0.0959851
-0.185679 -0.395018 0.197808
-0.207675 -0.451003 0.271807
-0.22478 -0.442804 0.296935
-0.227992 -0.388881 0.271532
-0.210991 -0.324457 0.216705
-0.169525 -0.28183 0.159505
-0.105789 -0.286806 0.13346
-0.0285723 -0.340182 0.154093
0.049804 -0.401416 0.200321
0.11646 -0.445333 0.249251
0.160888 -0.444899 0.272909
0.17926 -0.385969 0.253459
-0.156403 -0.00583707 0.0127272
-0.168757 0.0251633 -0.00986489
-0.169022 0.0704509 -0.0468386
-0.154999 0.113986 -0.0879506
-0.131117 0.12973 -0.116097
-0.105723 0.0914375 -0.117491
-0.0881703 -0.00541228 -0.077075
-0.0854952 -0.141753 0.00437506
-0.101197 -0.282312 0.112613
-0.132063 -0.391019 0.224572