# vtk DataFile Version 2.0
Func
ASCII
DATASET RECTILINEAR_GRID
DIMENSIONS 21 21 21
X_COORDINATES 21 double
-0.47619
-0.428571
-0.380952
-0.333333
-0.285714
-0.238095
-0.190476
-0.142857
-0.0952381
-0.047619
0
0.047619
0.0952381
0.142857
0.190476
0.238095
0.285714
0.333333
0.380952
0.428571
0.47619
Y_COORDINATES 21 double
-0.47619
-0.428571
-0.380952
-0.333333
-0.285714
-0.238095
-0.190476
-0.142857
-0.0952381
-0.047619
0
0.047619
0.0952381
0.142857
0.190476
0.238095
0.285714
0.333333
0.380952
0.428571
0.47619
Z_COORDINATES 21 double
-0.47619
-0.428571
-0.380952
-0.333333
-0.285714
-0.238095
-0.190476
-0.142857
-0.0952381
-0.047619
0
0.047619
0.0952381
0.142857
0.190476
0.238095
0.285714
0.333333
0.380952
0.428571
0.47619
POINT_DATA 9261
SCALARS data double 3
LOOKUP_TABLE default
-0.0298923 -0.0568849 0.0428156
-0.0477072 -0.101279 0.0226963
-0.0596459 -0.142109 -0.00871325
-0.0605674 -0.141624 -0.0332295
-0.0522884 -0.16595 -0.0835279
-0.0391427 -0.173491 -0.0729828
-0.0238456 -0.162004 -0.0325502
-0.0191914 -0.0975785 -0.0176
-0.00746572 0.00421951 0.0287493
-0.00388691 0.112941 0.0423106
-0.00194298 0.216999 0.041627
-0.00170813 0.27481 0.0716056
0.00236885 0.298237 0.0952276
0.0107243 0.268318 0.117054
0.021661 0.265453 0.0973232
0.0266239 0.248564 0.04947
0.0260201 0.203685 0.00506942
0.018368 0.11618 -0.00674904
0.0203093 0.0582169 -0.00582375
0.023566 0.0104157 0.0108507
0.0326431 -0.021673 0.0314814
-0.0184377 -0.0485786 0.0465881
-0.0351883 -0.0933525 0.0258759
-0.0468785 -0.134698 -0.00384416
-0.049732 -0.131873 -0.0283851
-0.0410512 -0.15886 -0.0694199
-0.0304014 -0.173159 -0.0532282
-0.0181662 -0.17026 -0.00805753
-0.0181571 -0.107885 0.00676172
-0.00740729 -0.00609561 0.0473685
-0.00495142 0.105721 0.0559371
-0.00186302 0.214595 0.04817
0.000919687 0.279781 0.0562782
0.0111955 0.309252 0.06075
0.0277451 0.280731 0.0692299
0.0488881 0.284275 0.0440937
0.0611874 0.27449 -0.00655024
0.064334 0.232854 -0.0477515
0.0566309 0.141987 -0.0444756
0.0573493 0.0822327 -0.0351459
0.0569886 0.0328185 -0.00356716
0.0619544 -0.00192591 0.0305261
-0.0125803 -0.0395118 0.0482924
-0.0263301 -0.0817148 0.0331866
-0.0359218 -0.119805 0.0101504
-0.0410222 -0.11121 -0.0137113
-0.0310484 -0.138482 -0.0457852
-0.0237128 -0.159212 -0.0285901
-0.0156071 -0.166992 0.0129101
-0.0191003 -0.110173 0.0242028
-0.0109785 -0.0143163 0.0490792
-0.0101968 0.0943184 0.0454178
-0.00643087 0.201751 0.0251706
0.00135211 0.271255 0.0116882
0.0197512 0.305365 -0.00237351
0.0473972 0.27938 -0.00435253
0.0776961 0.290602 -0.0316153
0.0965924 0.291415 -0.0797628
0.102022 0.257546 -0.112497
0.0922059 0.168312 -0.0893437
0.0897954 0.109477 -0.0702024
0.0835525 0.0607026 -0.0239857
0.082793 0.0232638 0.0222949
-0.000241806 -0.030308 0.0783578
-0.0116644 -0.0669274 0.0664489
-0.019792 -0.0984361 0.0429029
-0.0270559 -0.0834881 0.0158568
-0.0209169 -0.106519 -0.0203526
-0.0187785 -0.129703 -0.0122123
-0.0158958 -0.145461 0.0159352
-0.0223031 -0.0964231 0.0213413
-0.0154097 -0.0108471 0.0368296
-0.0158569 0.0885409 0.0264322
-0.0120807 0.188533 0.00159913
-0.0037025 0.255384 -0.0161241
0.0171426 0.289243 -0.0363289
0.0485077 0.264232 -0.0462251
0.0835642 0.279677 -0.0745644
0.105377 0.288637 -0.118831
0.110806 0.262983 -0.147789
0.100241 0.179228 -0.122435
0.0946771 0.124827 -0.0987063
0.0854335 0.0788896 -0.0481125
0.0815962 0.0402455 0.00210501
-0.00801171 -0.0173677 0.136198
-0.0121982 -0.0456186 0.14511
-0.0125152 -0.0687256 0.137599
-0.0182893 -0.0455827 0.105774
-0.000565323 -0.0647027 0.0641792
0.00486329 -0.0944863 0.0521185
0.00893809 -0.12466 0.0589275
0.00655247 -0.0861905 0.0505897
0.00510379 -0.0186503 0.0335586
5.38382e-05 0.0646372 0.0107305
-0.00250063 0.150262 -0.0175036
0.0143159 0.216996 -0.0462716
0.0418221 0.255275 -0.0671546
0.0823582 0.237547 -0.0657851
0.113154 0.267474 -0.0875703
0.130483 0.297958 -0.122762
0.127278 0.291922 -0.142241
0.101593 0.220162 -0.112274
0.089843 0.174607 -0.0824545
0.0714062 0.133919 -0.0327798
0.0602113 0.0918556 0.0119945
-0.00377432 -0.00628833 0.205617
-0.00373796 -0.0261999 0.227259
0.000354111 -0.0404999 0.226439
-0.00295534 -0.00974667 0.189106
0.0203742 -0.0214498 0.136617
0.0285529 -0.0538228 0.109867
0.0336908 -0.0941593 0.102289
0.03603 -0.0668656 0.0819455
0.0276352 -0.0163449 0.0545917
0.0180011 0.0484448 0.0300399
0.00749334 0.116474 0.00613293
0.0240807 0.177477 -0.0216296
0.0480272 0.215071 -0.0392986
0.0835503 0.201451 -0.0355008
0.102891 0.241832 -0.052407
0.109492 0.290349 -0.0881879
0.0954507 0.302718 -0.107637
0.0576751 0.244639 -0.085074
0.0417731 0.209749 -0.0531826
0.0194748 0.175201 -0.0115423
0.00670977 0.131499 0.0228515
0.00831962 0.00443831 0.25872
0.0135933 -0.00786389 0.289603
0.0235645 -0.0148598 0.293422
0.0257033 0.0217303 0.25229
0.0562945 0.0175519 0.193392
0.0695618 -0.0173729 0.16051
0.0780022 -0.0664683 0.146646
0.0874396 -0.0495074 0.121566
0.0721316 -0.0141989 0.0966531
0.0565305 0.0327273 0.0767561
0.0343562 0.0832481 0.0613449
0.0451493 0.138684 0.0347911
0.0587541 0.176038 0.0180051
0.0809649 0.167276 0.0183856
0.0837175 0.218166 0.00256729
0.0745645 0.284552 -0.0392982
0.0467968 0.314973 -0.0640416
-0.00506959 0.269978 -0.0519267
-0.0237997 0.245352 -0.018896
-0.0483509 0.216516 0.0128553
-0.060714 0.171268 0.0353586
0.0262846 0.01183 0.236
0.0383986 0.00353612 0.266595
0.0560842 0.00065872 0.274483
0.0673742 0.0408401 0.239906
0.10563 0.0415047 0.190591
0.12574 0.00541242 0.164774
0.139336 -0.0491334 0.155323
0.155772 -0.0397074 0.129224
0.136222 -0.0160343 0.106995
0.11578 0.0180779 0.0849446
0.0826188 0.0569242 0.0634275
0.0824964 0.108984 0.0422634
0.0809333 0.147701 0.0259028
0.0842524 0.144605 0.018965
0.0692828 0.204804 1.82588e-05
0.0442317 0.284928 -0.0450663
0.00442809 0.328883 -0.0708004
-0.0579856 0.294597 -0.0580857
-0.0781758 0.275804 -0.0280919
-0.103723 0.249093 0.00401913
-0.115781 0.200885 0.0271722
0.0481594 0.013304 0.20891
0.0685491 0.00601547 0.24247
0.0973404 0.00284485 0.257783
0.120342 0.0413206 0.233332
0.170926 0.0459597 0.180502
0.200126 0.00638648 0.161737
0.219545 -0.0535035 0.167151
0.240397 -0.0509195 0.151256
0.212818 -0.0321425 0.155364
0.183307 -0.0105313 0.152322
0.135066 0.0136778 0.144883
0.125518 0.0641974 0.109313
0.110753 0.104445 0.0780574
0.0973124 0.105887 0.055032
0.0669601 0.172225 0.0301787
0.0270701 0.264245 -0.0221039
-0.0244701 0.319189 -0.0508807
-0.100687 0.291494 -0.0344267
-0.121568 0.281809 -0.0117401
-0.149448 0.262784 0.0145472
-0.161793 0.218578 0.0328786
0.0597201 0.00927197 0.0989854
0.0863507 -0.000100229 0.130473
0.123522 -0.00626196 0.152648
0.156635 0.0281959 0.143281
0.211966 0.0339502 0.102563
0.244843 -0.00746785 0.102855
0.265387 -0.0690918 0.128759
0.286058 -0.0695064 0.127574
0.250509 -0.0514454 0.144438
0.213343 -0.0360878 0.140734
0.154283 -0.0197488 0.123641
0.135242 0.0310914 0.0759417
0.109659 0.0730183 0.0317463
0.0843097 0.0771448 -0.00161767
0.0452313 0.14611 -0.0316602
-0.00114447 0.242607 -0.084367
-0.0557352 0.301302 -0.10638
-0.13483 0.276128 -0.0636538
-0.15423 0.271103 -0.043297
-0.182022 0.257402 -0.00753076
-0.194014 0.217305 0.0186825
0.056989 -0.00139117 -0.0484716
0.0859365 -0.0160939 -0.0200127
0.12661 -0.0276955 0.010673
0.165396 0.00106745 0.0187356
0.219012 0.00636723 -0.00412239
0.250626 -0.0354887 0.0198069
0.268083 -0.096219 0.0677427
0.28563 -0.0969717 0.079357
0.241944 -0.0751629 0.10228
0.198509 -0.0620829 0.0895238
0.13242 -0.0503626 0.0548778
0.106995 0.00158642 -0.00705079
0.0752373 0.0442891 -0.0635329
0.0446039 0.048459 -0.10053
0.00254341 0.115714 -0.132965
-0.0435167 0.210577 -0.179706
-0.0948508 0.267532 -0.189206
-0.169676 0.240529 -0.110511
-0.185694 0.238519 -0.088834
-0.211336 0.231123 -0.0375176
-0.221328 0.198082 0.000529271
0.048841 0.00058287 -0.124331
0.0760111 -0.0146299 -0.0991375
0.114726 -0.0270651 -0.0641151
0.153945 -0.00176943 -0.0488983
0.199022 0.00624448 -0.0469392
0.223647 -0.0338024 -0.00497525
0.232986 -0.0932682 0.0571643
0.245967 -0.0964501 0.0715743
0.192618 -0.0802628 0.105499
0.144764 -0.0762911 0.0923506
0.0758709 -0.0751033 0.053409
0.0473539 -0.0263258 -0.0148827
0.0131593 0.0149229 -0.0754535
-0.0193291 0.0187444 -0.111912
-0.0603891 0.0856551 -0.139271
-0.103082 0.179111 -0.175345
-0.148461 0.23669 -0.175341
-0.21571 0.214352 -0.0880524
-0.227104 0.218096 -0.0614972
-0.248471 0.218829 -0.00759053
-0.254989 0.193603 0.0315677
0.0299637 0.00303914 -0.183703
0.0508341 -0.0123284 -0.162692
0.0821876 -0.0250745 -0.128072
0.116812 -0.00255322 -0.111247
0.148436 0.00882096 -0.0989111
0.163114 -0.0273011 -0.0504649
0.1633 -0.0827367 0.014806
0.170883 -0.0860347 0.0275369
0.112264 -0.0719355 0.064711
0.0645185 -0.0750129 0.054193
-0.00166226 -0.0834074 0.0199018
-0.0291155 -0.0392388 -0.0449579
-0.0617486 -0.00240336 -0.0976739
-0.0922591 -0.00290968 -0.119789
-0.128985 0.0583791 -0.136752
-0.165622 0.145211 -0.161896
-0.202249 0.199708 -0.15575
-0.257918 0.179638 -0.0708578
-0.263913 0.188945 -0.0454656
-0.278569 0.198861 0.00287117
-0.279347 0.18316 0.0375637
0.00871565 0.0153645 -0.220988
0.0182889 0.0032069 -0.208079
0.0362787 -0.00700992 -0.184123
0.0615618 0.0129196 -0.168679
0.0751965 0.029064 -0.176984
0.0786609 -0.00230082 -0.145243
0.0706925 -0.0535272 -0.0988488
0.0729274 -0.0599249 -0.0906439
0.0196939 -0.0526604 -0.065744
-0.0202495 -0.0685738 -0.0641067
-0.0741398 -0.0928998 -0.0741776
-0.0983102 -0.0571369 -0.122676
-0.126764 -0.0275763 -0.1523
-0.154491 -0.0332893 -0.138102
-0.182887 0.0202393 -0.141987
-0.210717 0.0992118 -0.148426
-0.235593 0.152046 -0.139345
-0.272124 0.138855 -0.0781399
-0.271175 0.157995 -0.0638751
-0.274201 0.180995 -0.0388521
-0.265802 0.178504 -0.0226323
-0.0152304 0.0114247 -0.278835
-0.0117237 -0.00238507 -0.269867
-0.00106202 -0.0153485 -0.244646
0.0177609 0.00134111 -0.222782
0.025194 0.0185149 -0.221401
0.0239515 -0.00794076 -0.180324
0.0127889 -0.0506184 -0.128585
0.0145806 -0.050095 -0.121872
-0.0379862 -0.0321837 -0.0991668
-0.0737891 -0.0422429 -0.102308
-0.121754 -0.0651541 -0.116645
-0.13949 -0.0322029 -0.156291
-0.162977 -0.00945192 -0.175389
-0.185583 -0.0252208 -0.151329
-0.212117 0.0152616 -0.153779
-0.236618 0.080216 -0.160713
-0.256414 0.122413 -0.15758
-0.286416 0.104029 -0.102688
-0.282021 0.123658 -0.0930451
-0.279938 0.151842 -0.0703641
-0.267804 0.157448 -0.0536363
-0.02594 0.0173068 -0.317376
-0.0261065 0.00362313 -0.314554
-0.0199423 -0.00979993 -0.292699
-0.00675203 0.00213999 -0.26531
-0.00150716 0.0194957 -0.265953
-0.00442606 -0.00358844 -0.222346
-0.0155056 -0.0397978 -0.173109
-0.0135179 -0.0375691 -0.162133
-0.0566314 -0.0153731 -0.14857
-0.0833076 -0.0255221 -0.148568
-0.119352 -0.0522722 -0.153842
-0.13055 -0.025547 -0.186855
-0.148431 -0.011083 -0.198609
-0.166984 -0.03466 -0.164883
-0.189896 -0.00654622 -0.171195
-0.211045 0.0454977 -0.182076
-0.226543 0.0808344 -0.18686
-0.249324 0.0635898 -0.150661
-0.242308 0.0896461 -0.152655
-0.236171 0.126776 -0.140252
-0.222326 0.142909 -0.126485
-0.0291131 0.0218519 -0.335198
-0.0287294 0.00776112 -0.333162
-0.0222965 -0.00804628 -0.306665
-0.0120687 -0.00272824 -0.268412
-0.00467025 0.0120674 -0.26238
-0.00756961 -0.0100781 -0.210187
-0.0182631 -0.0413304 -0.154758
-0.0172524 -0.0376422 -0.137055
-0.054006 -0.0101742 -0.127875
-0.074798 -0.0184108 -0.124444
-0.101726 -0.046518 -0.125053
-0.106494 -0.0241954 -0.162926
-0.118386 -0.0163275 -0.181162
-0.131685 -0.0458169 -0.154726
-0.151088 -0.0289787 -0.16997
-0.169377 0.0113812 -0.191486
-0.182489 0.0400528 -0.208754
-0.201727 0.0241231 -0.188343
-0.193851 0.0556129 -0.198178
-0.186999 0.0998297 -0.190986
-0.174343 0.125141 -0.175808
-0.0297067 0.0171176 -0.326215
-0.0246994 0.00268515 -0.316027
-0.0142705 -0.0159597 -0.272368
-0.00447568 -0.0194147 -0.219675
0.00629284 -0.00922729 -0.173671
0.00347826 -0.0313803 -0.105563
-0.00718589 -0.0580041 -0.0413851
-0.0080697 -0.0544941 -0.0131345
-0.0402419 -0.0239004 -0.00886575
-0.0575042 -0.0314524 -0.00656514
-0.0770792 -0.061137 -0.0105098
-0.0779263 -0.042468 -0.0741069
-0.0854302 -0.0391926 -0.120349
-0.0934417 -0.0687212 -0.128171
-0.109319 -0.0639444 -0.154264
-0.124416 -0.0344785 -0.184392
-0.135355 -0.0111841 -0.209126
-0.149942 -0.0228485 -0.195268
-0.143081 0.0139238 -0.204574
-0.13747 0.0637428 -0.192506
-0.128397 0.0965493 -0.17024
-0.0314383 0.0217297 -0.299805
-0.0232782 0.0067915 -0.278697
-0.00878465 -0.0129378 -0.222826
0.000656503 -0.0194971 -0.159627
0.0165665 -0.012846 -0.10186
0.0142162 -0.0342459 -0.0242494
0.00237496 -0.0572886 0.0456188
-0.000733298 -0.0521489 0.0810168
-0.0368847 -0.0177125 0.0848037
-0.0569286 -0.0221443 0.0822881
-0.0762137 -0.0503209 0.0722018
-0.0698315 -0.0356204 -0.00341286
-0.0693802 -0.0374992 -0.0606576
-0.0677484 -0.0712038 -0.0764768
-0.0797301 -0.0713317 -0.111023
-0.092966 -0.0481382 -0.150834
-0.104707 -0.0285954 -0.184291
-0.123544 -0.0400517 -0.181298
-0.118799 -0.00230685 -0.191543
-0.117611 0.0486955 -0.180074
-0.111818 0.084785 -0.158924
-0.03778 0.0184058 -0.249525
-0.0265434 0.00440816 -0.211313
-0.00950637 -0.015655 -0.136117
-0.000755153 -0.0269674 -0.0640879
0.019032 -0.0247819 0.0210004
0.018007 -0.046027 0.1099
0.00605975 -0.0658792 0.184725
0.00194699 -0.0611648 0.221577
-0.0353005 -0.0274056 0.22096
-0.0559965 -0.0312403 0.210963
-0.0743536 -0.0585139 0.191065
-0.0627314 -0.0463752 0.0930184
-0.0556627 -0.0499125 0.0142546
-0.0456081 -0.0804213 -0.0225552
-0.0555212 -0.0843113 -0.0607714
-0.0666426 -0.0653724 -0.102627
-0.0783899 -0.0476469 -0.132386
-0.0990251 -0.055789 -0.123678
-0.0982059 -0.019206 -0.129625
-0.101183 0.0303021 -0.115541
-0.0990979 0.0671368 -0.0959423
-0.0497845 0.0130862 -0.188609
-0.0372696 0.00086633 -0.136896
-0.0199237 -0.0174616 -0.0509155
-0.0126473 -0.0300766 0.0226983
0.0102272 -0.0304048 0.116451
0.0110763 -0.0507849 0.202502
0.000696978 -0.0686115 0.273626
-0.00321499 -0.065753 0.307394
-0.0389441 -0.0353585 0.300702
-0.058622 -0.0403873 0.287122
-0.0757046 -0.0674034 0.263925
-0.0590347 -0.057634 0.154641
-0.0458044 -0.0616071 0.0663636
-0.0275555 -0.0869378 0.0203561
-0.0352271 -0.0917996 -0.0181717
-0.0433696 -0.0743827 -0.05521
-0.0541812 -0.0567577 -0.0770797
-0.0751374 -0.0610907 -0.0614955
-0.077921 -0.0269125 -0.0631352
-0.0844849 0.0190763 -0.0507254
-0.0858184 0.0537383 -0.0385184
-0.00634312 -0.0899284 0.049325
-0.022873 -0.137623 0.0274913
-0.0339039 -0.175348 -0.00840449
-0.0363656 -0.171018 -0.0356629
-0.0247661 -0.180676 -0.0952754
-0.0111472 -0.182205 -0.083131
0.00292316 -0.16859 -0.0361521
0.00194099 -0.0981672 -0.0148471
0.0157154 -0.00448861 0.0354317
0.0194315 0.104047 0.0505958
0.024507 0.210979 0.0495508
0.0260084 0.27993 0.0806648
0.0339415 0.310805 0.105215
0.0455981 0.280796 0.128582
0.0642857 0.274183 0.106856
0.0743694 0.246486 0.0543492
0.077469 0.186658 0.00676244
0.0719491 0.08349 -0.00337379
0.0754568 0.0133917 -0.000776821
0.0787723 -0.0363137 0.0179053
0.0864496 -0.0626133 0.0387675
0.0123712 -0.0870082 0.0503512
-0.00177245 -0.134918 0.0264109
-0.0117198 -0.171763 -0.00860445
-0.0164009 -0.163677 -0.0363517
-0.00443053 -0.173011 -0.084741
0.00574363 -0.180049 -0.0643143
0.0154332 -0.174518 -0.00944117
0.00798382 -0.106311 0.013967
0.0205725 -0.0124999 0.060463
0.0230634 0.0991207 0.0713609
0.0301917 0.211085 0.0630159
0.0350157 0.287729 0.0704108
0.0508748 0.324372 0.0736633
0.0726799 0.294524 0.0811781
0.104354 0.293529 0.0523797
0.123642 0.271942 -0.00469583
0.131665 0.21426 -0.050022
0.12657 0.107464 -0.0442452
0.127942 0.0350825 -0.0320752
0.125909 -0.0145419 0.0038546
0.127333 -0.0413144 0.0404172
0.0212958 -0.081532 0.0473693
0.0107468 -0.12603 0.0280535
0.00316907 -0.157531 -0.000383307
-0.00413845 -0.141946 -0.0276684
0.00820208 -0.148312 -0.064476
0.0137293 -0.160625 -0.0408077
0.0178629 -0.165719 0.0128061
0.00530631 -0.104001 0.0344076
0.0150697 -0.0163348 0.0661541
0.0160481 0.0913711 0.0650372
0.0249789 0.201307 0.0436339
0.0357913 0.281595 0.027437
0.0617178 0.321909 0.0100264
0.0968147 0.29301 0.00487848
0.140315 0.298927 -0.0276862
0.16795 0.287386 -0.0836612
0.178946 0.237404 -0.12115
0.172062 0.133309 -0.0942476
0.168714 0.0625463 -0.0712927
0.158966 0.0162525 -0.0184628
0.153042 -0.0109137 0.0326592
0.0301567 -0.0721212 0.0771782
0.0215056 -0.110035 0.060893
0.0149475 -0.133388 0.0317718
0.00540712 -0.110029 0.00083431
0.0120088 -0.11078 -0.0392979
0.0111904 -0.125546 -0.02447
0.00904735 -0.139741 0.0158026
-0.00712977 -0.0872674 0.0317007
0.00156304 -0.011732 0.0543132
0.00183774 0.0848365 0.046671
0.0117905 0.185493 0.0209306
0.0237849 0.261895 0.00060306
0.0532281 0.300811 -0.0231634
0.0934945 0.271685 -0.0370707
0.142823 0.281425 -0.0714998
0.174101 0.278747 -0.124316
0.185301 0.238239 -0.158823
0.178416 0.141203 -0.130297
0.170398 0.0767288 -0.102843
0.156895 0.035521 -0.0454732
0.147737 0.00830904 0.0101713
0.0134927 -0.059166 0.135572
0.0109011 -0.0864579 0.141539
0.0115036 -0.097994 0.129949
0.0038335 -0.0645822 0.0936467
0.0212122 -0.0567718 0.0484363
0.0237895 -0.0767261 0.0422852
0.0233334 -0.105284 0.0608587
0.0120983 -0.0652295 0.0625167
0.0130436 -0.00779416 0.0521253
0.00963671 0.0711302 0.032827
0.0140699 0.155984 0.00493356
0.0346581 0.229575 -0.0264828
0.0705662 0.270562 -0.0503326
0.119857 0.246141 -0.0511744
0.163951 0.270558 -0.0795896
0.189449 0.290354 -0.124615
0.190775 0.271406 -0.151267
0.16875 0.190004 -0.119435
0.152903 0.136562 -0.0872176
0.130209 0.104438 -0.0315784
0.114587 0.0761122 0.0186182
0.00724552 -0.0444817 0.210255
0.00731124 -0.0616851 0.230654
0.0113402 -0.0623243 0.226497
0.00665582 -0.0202964 0.183858
0.0287174 -0.00325918 0.125848
0.0347233 -0.0260963 0.102886
0.0365965 -0.0660552 0.105235
0.0320376 -0.0390949 0.09389
0.0273228 -0.000292944 0.0736332
0.0206195 0.0579867 0.0542512
0.0177893 0.123285 0.0333384
0.037723 0.188933 0.00521618
0.0687821 0.227588 -0.0131936
0.111538 0.2057 -0.00940413
0.141555 0.241289 -0.0326681
0.153923 0.280956 -0.0793617
0.142391 0.283009 -0.108093
0.10793 0.218541 -0.0867303
0.0866091 0.178322 -0.0550522
0.0607036 0.155006 -0.0104805
0.0451768 0.126087 0.027221
0.0107263 -0.0287331 0.268473
0.0148098 -0.0368647 0.299563
0.0241685 -0.0289956 0.300545
0.0257699 0.0190472 0.253555
0.0549776 0.0440556 0.186787
0.0674273 0.0175348 0.155376
0.0746127 -0.0327916 0.149439
0.0799948 -0.017948 0.13281
0.0703426 0.00397502 0.11593
0.0592536 0.0425718 0.103487
0.0451515 0.08883 0.0942843
0.0583246 0.147291 0.0699536
0.0769063 0.184831 0.0547986
0.103628 0.167048 0.0574016
0.1134 0.214369 0.0356355
0.106545 0.274185 -0.0180613
0.0784524 0.297122 -0.0540545
0.0286982 0.248967 -0.0464108
0.00351273 0.221284 -0.0163979
-0.0236913 0.205603 0.0146582
-0.0371039 0.175669 0.0374729
0.0257732 -0.0162014 0.24434
0.0359418 -0.0195664 0.275924
0.0527884 -0.00748314 0.282136
0.0645876 0.0433534 0.242387
0.102301 0.0726347 0.185751
0.123622 0.0436037 0.161091
0.138706 -0.013729 0.158929
0.154198 -0.00775499 0.140462
0.143148 0.00137024 0.126498
0.129005 0.0259223 0.112501
0.104186 0.0593927 0.0980174
0.105068 0.114341 0.0807714
0.105941 0.153789 0.0671851
0.110151 0.142536 0.0631634
0.0984456 0.200641 0.0386752
0.0721424 0.276559 -0.0182701
0.0291164 0.315616 -0.0557341
-0.0330812 0.280637 -0.0480091
-0.0604033 0.260039 -0.0234601
-0.0881343 0.247048 0.00604802
-0.100241 0.213568 0.0281787
0.0423509 -0.00906111 0.218092
0.0605317 -0.0109756 0.253834
0.0887654 0.000258434 0.268033
0.11361 0.0479279 0.238537
0.164805 0.0791605 0.174379
0.196991 0.0443123 0.154539
0.22003 -0.0203768 0.166117
0.242586 -0.0215501 0.15797
0.22487 -0.0182049 0.171507
0.202685 -0.00587168 0.178849
0.162589 0.013791 0.180998
0.153257 0.0673678 0.149514
0.138905 0.108852 0.121521
0.123987 0.102227 0.102951
0.0935869 0.168141 0.0735686
0.0497651 0.257613 0.0103302
-0.00689386 0.309354 -0.0295635
-0.0837562 0.283026 -0.0182926
-0.111933 0.271816 -0.0025152
-0.141397 0.266918 0.0181738
-0.153023 0.236907 0.0321671
0.053196 -0.00859081 0.101151
0.0775253 -0.0127309 0.13563
0.114378 -0.00563613 0.158349
0.150233 0.0364905 0.145583
0.206999 0.0664627 0.0940685
0.24403 0.0278113 0.0934177
0.269595 -0.0398862 0.125366
0.293416 -0.0436714 0.131422
0.268755 -0.0412221 0.156503
0.239342 -0.0343424 0.161988
0.18795 -0.0213248 0.152907
0.168122 0.0339377 0.107306
0.141282 0.0785865 0.0650842
0.112668 0.075603 0.0363483
0.0716545 0.145562 0.00312295
0.0200199 0.240626 -0.0581762
-0.0403601 0.296936 -0.0884733
-0.120149 0.27378 -0.0472091
-0.146279 0.266683 -0.0334508
-0.175065 0.26627 -0.00331988
-0.185932 0.239076 0.0175717
0.0514135 -0.0160845 -0.0550229
0.0779207 -0.0260825 -0.0226037
0.118176 -0.0257659 0.0107959
0.159816 0.009286 0.0175095
0.215077 0.036316 -0.0146302
0.25098 -0.00424222 0.00901595
0.273723 -0.0716638 0.0625703
0.294614 -0.0745988 0.0800302
0.261958 -0.0680176 0.108232
0.225943 -0.0620307 0.101494
0.166654 -0.0519022 0.071401
0.13948 0.00621845 0.008504
0.105306 0.0532558 -0.0476813
0.0705497 0.0512171 -0.0794204
0.0259142 0.120443 -0.11291
-0.025154 0.214197 -0.164726
-0.0815221 0.268782 -0.178392
-0.156074 0.243597 -0.0957698
-0.177339 0.238367 -0.0794838
-0.202996 0.242948 -0.0327798
-0.211308 0.221236 -0.000295783
0.0543334 -0.0117469 -0.134394
0.0800585 -0.0226464 -0.10457
0.118859 -0.0241854 -0.0653231
0.160459 0.00646922 -0.0497864
0.207464 0.0350393 -0.0549437
0.235598 -0.00362539 -0.0128404
0.249245 -0.0686431 0.0538266
0.264863 -0.0730155 0.0716984
0.220877 -0.0688578 0.108604
0.178784 -0.0698675 0.0987455
0.114713 -0.0683956 0.0618542
0.0829458 -0.0125834 -0.00978213
0.0447976 0.0339143 -0.0710083
0.00636061 0.0319842 -0.101381
-0.0373665 0.101862 -0.127444
-0.0848283 0.19457 -0.164817
-0.134504 0.250053 -0.165306
-0.201791 0.22953 -0.0710521
-0.216531 0.22965 -0.0488195
-0.237615 0.241212 0.000569036
-0.242712 0.225707 0.0334634
0.0446594 -0.00829237 -0.193653
0.0648559 -0.0198677 -0.16758
0.0964205 -0.0227037 -0.128283
0.132317 0.00451582 -0.11048
0.165613 0.0354402 -0.105479
0.182315 0.00122437 -0.0583183
0.185228 -0.0582438 0.00876811
0.194234 -0.0615285 0.0219763
0.142638 -0.0559481 0.0591139
0.0987282 -0.0618394 0.0497343
0.0353366 -0.0682539 0.0164195
0.0036258 -0.0167367 -0.0521801
-0.0338993 0.0255848 -0.104412
-0.0712488 0.0191797 -0.117594
-0.110161 0.0838215 -0.130099
-0.150713 0.169831 -0.15301
-0.190261 0.222358 -0.144889
-0.245659 0.204127 -0.0523042
-0.252864 0.209875 -0.0313128
-0.266568 0.229996 0.0112949
-0.265885 0.222864 0.0384171
0.0302643 0.00537305 -0.225259
0.040303 -0.00352724 -0.20845
0.0587637 -0.0051706 -0.182182
0.0838141 0.0187855 -0.166988
0.0987137 0.0529306 -0.187274
0.102141 0.0241806 -0.160926
0.0946082 -0.0291032 -0.117557
0.0971307 -0.0346814 -0.11166
0.047389 -0.0306152 -0.0901144
0.0090292 -0.0466476 -0.0873995
-0.044214 -0.0672675 -0.0940595
-0.0727957 -0.0253568 -0.143225
-0.106199 0.008502 -0.167961
-0.140293 -0.00416401 -0.139279
-0.170118 0.0527319 -0.135193
-0.200415 0.131014 -0.136473
-0.226318 0.182626 -0.125123
-0.261697 0.172171 -0.0609954
-0.259805 0.188867 -0.0525759
-0.261343 0.222084 -0.0369425
-0.251999 0.227341 -0.0307555
0.00774688 -0.00095211 -0.286008
0.0111781 -0.0121887 -0.273477
0.0213941 -0.0172845 -0.24579
0.038817 0.00303268 -0.223723
0.0473211 0.0379324 -0.234801
0.0456567 0.0148396 -0.200057
0.0347056 -0.0284929 -0.153165
0.0367345 -0.0258577 -0.151318
-0.0125757 -0.00944616 -0.134133
-0.0470205 -0.0184833 -0.137679
-0.0948098 -0.037154 -0.148979
-0.117063 0.00161983 -0.187918
-0.14568 0.0279894 -0.199925
-0.17476 0.00414881 -0.158471
-0.202968 0.0470016 -0.15103
-0.229837 0.110293 -0.151794
-0.250137 0.150776 -0.146675
-0.278572 0.135051 -0.0897462
-0.272142 0.153002 -0.0871196
-0.267599 0.192029 -0.0743662
-0.253842 0.205934 -0.0672896
-0.00308017 0.00358333 -0.326703
-0.00327758 -0.00826771 -0.322161
0.00218541 -0.0148159 -0.298817
0.0130713 0.00029162 -0.270746
0.0197499 0.0339842 -0.283937
0.0162964 0.0147256 -0.246679
0.00549213 -0.0207931 -0.202972
0.00860617 -0.0155699 -0.19741
-0.0313503 0.00766415 -0.190193
-0.0563012 -0.000185512 -0.190258
-0.0919611 -0.0224521 -0.191052
-0.106774 0.00817188 -0.221985
-0.129241 0.0241195 -0.22516
-0.153755 -0.00930641 -0.173001
-0.178739 0.0196015 -0.169257
-0.202512 0.0690409 -0.174885
-0.218738 0.102827 -0.179423
-0.240402 0.0892852 -0.14488
-0.231077 0.115369 -0.155057
-0.222682 0.164689 -0.153444
-0.207799 0.19011 -0.148544
-0.00674364 0.00720049 -0.3485
-0.00627506 -0.00563941 -0.346023
-0.000517135 -0.0155754 -0.3177
0.00697891 -0.00770398 -0.277094
0.0166475 0.0218069 -0.28137
0.0136111 0.0036749 -0.233083
0.00389443 -0.0258569 -0.181328
0.00720503 -0.0185498 -0.168166
-0.0257136 0.0120554 -0.164563
-0.0438253 0.00702721 -0.160398
-0.0693855 -0.01676 -0.155967
-0.076501 0.00727845 -0.19242
-0.0923431 0.0140876 -0.203453
-0.111328 -0.0271369 -0.160618
-0.133254 -0.0116033 -0.167572
-0.154967 0.0249392 -0.186218
-0.169933 0.0520853 -0.205553
-0.189568 0.0410242 -0.189457
-0.179951 0.0740967 -0.2079
-0.17163 0.131886 -0.210862
-0.158862 0.167838 -0.202561
-0.0121351 0.0033265 -0.345639
-0.00763662 -0.0104713 -0.335044
0.00150344 -0.0248737 -0.2869
0.00843153 -0.0267035 -0.228909
0.0205165 -0.0049262 -0.184629
0.0172786 -0.0237038 -0.115091
0.00784454 -0.0482218 -0.0502698
0.0101223 -0.0408242 -0.0247244
-0.0170093 -0.00494415 -0.0242095
-0.0300604 -0.00838626 -0.02135
-0.04641 -0.0340638 -0.0218142
-0.0485206 -0.0162704 -0.0879076
-0.0594114 -0.0169855 -0.13172
-0.0729991 -0.059752 -0.129188
-0.0918086 -0.0585624 -0.150622
-0.110892 -0.0335441 -0.180569
-0.124415 -0.011101 -0.208946
-0.13969 -0.016125 -0.199404
-0.131833 0.0236045 -0.216161
-0.124972 0.0877699 -0.211135
-0.115925 0.131779 -0.192143
-0.0185434 0.00761704 -0.322647
-0.0106048 -0.00705229 -0.300765
0.00337647 -0.0229906 -0.238696
0.0104838 -0.0281802 -0.167547
0.0294064 -0.0105847 -0.108462
0.0275592 -0.0283549 -0.0259132
0.0174831 -0.0487752 0.0477157
0.0181432 -0.0393778 0.0830788
-0.0136031 0.000222034 0.0842707
-0.0295997 -0.000432959 0.0822931
-0.0455673 -0.0254704 0.0744029
-0.0388088 -0.0134107 -0.006449
-0.040391 -0.0212622 -0.0643979
-0.0430622 -0.0695993 -0.0730549
-0.0583889 -0.0745956 -0.105799
-0.0767796 -0.0569642 -0.147614
-0.0929034 -0.0386972 -0.185863
-0.114773 -0.043236 -0.187266
-0.110441 -0.00174079 -0.204111
-0.109179 0.064456 -0.198251
-0.103891 0.113091 -0.179172
-0.0328502 0.00614224 -0.274255
-0.0222762 -0.00774418 -0.233847
-0.00580547 -0.0248679 -0.150019
0.000956698 -0.0353437 -0.0679752
0.0231052 -0.0241594 0.0237609
0.0223364 -0.0422927 0.121186
0.0118143 -0.0595123 0.202714
0.0113357 -0.0506791 0.24131
-0.0223632 -0.0118517 0.239218
-0.03922 -0.0121673 0.229048
-0.0540354 -0.0369738 0.209104
-0.0409647 -0.0291953 0.1023
-0.0348452 -0.0402928 0.0187338
-0.0278056 -0.0856868 -0.0153271
-0.041151 -0.0950256 -0.0544163
-0.0576739 -0.0816136 -0.0993147
-0.0743534 -0.0648878 -0.133214
-0.0983512 -0.0657502 -0.126354
-0.0987655 -0.0252291 -0.136881
-0.101718 0.0388779 -0.125857
-0.0995615 0.0881496 -0.106944
-0.052818 0.0037499 -0.211432
-0.0413883 -0.00832865 -0.156288
-0.024844 -0.0242263 -0.0609218
-0.0191423 -0.0364046 0.0225579
0.00514726 -0.0296938 0.12459
0.00584154 -0.0477336 0.219726
-0.00377951 -0.0633741 0.298256
-0.00462818 -0.0568846 0.334648
-0.038243 -0.0220474 0.327463
-0.0548713 -0.0239943 0.313532
-0.0688446 -0.0489814 0.289295
-0.0502011 -0.0445931 0.169767
-0.0370423 -0.056785 0.0747631
-0.0204006 -0.0963046 0.0291535
-0.0310433 -0.10634 -0.0117765
-0.043816 -0.0940621 -0.0517497
-0.0590484 -0.0771771 -0.0764398
-0.0826455 -0.0744401 -0.0606668
-0.0869709 -0.0365422 -0.0650484
-0.093219 0.0225848 -0.0539673
-0.0939229 0.0686574 -0.0419999
0.0187188 -0.123446 0.0524286
0.00593587 -0.171651 0.0281107
-0.00204351 -0.203911 -0.0124023
-0.0063286 -0.192768 -0.040983
0.0075812 -0.187231 -0.11027
0.0197151 -0.184489 -0.0959395
0.0300495 -0.172728 -0.0418345
0.0213821 -0.101688 -0.0129094
0.0374624 -0.025982 0.0400897
0.0420712 0.0731529 0.0561746
0.052049 0.174429 0.0539158
0.0561127 0.253772 0.084932
0.0688631 0.293672 0.10957
0.0846018 0.271329 0.134277
0.111194 0.260098 0.111834
0.127014 0.22586 0.0570729
0.135977 0.15405 0.00855474
0.135712 0.0366386 0.001293
0.141391 -0.0456345 0.00657146
0.14553 -0.0982323 0.0269023
0.151349 -0.118481 0.0466977
0.0401297 -0.127099 0.0488092
0.0305509 -0.175495 0.0208086
0.024145 -0.205682 -0.0193527
0.0173702 -0.189451 -0.0483715
0.0304433 -0.180248 -0.103537
0.0377052 -0.181289 -0.0775142
0.0418489 -0.176677 -0.0116617
0.024733 -0.107881 0.021952
0.0396868 -0.0322596 0.0735575
0.0433619 0.0694177 0.0861411
0.0568473 0.175196 0.0762471
0.0651596 0.262298 0.0817443
0.0875421 0.307654 0.082981
0.115482 0.284774 0.0893392
0.157487 0.277531 0.0579842
0.184459 0.247942 -0.00314109
0.19994 0.176597 -0.0505474
0.20204 0.0546307 -0.0413256
0.204834 -0.0306606 -0.025522
0.202882 -0.0815836 0.0144235
0.201235 -0.0997862 0.0521495
0.0482482 -0.126568 0.0390037
0.0422417 -0.171311 0.0143722
0.038171 -0.194869 -0.0192772
0.0287637 -0.170133 -0.0477753
0.0408398 -0.154833 -0.0876881
0.0424431 -0.159572 -0.0551687
0.0399135 -0.164687 0.0128581
0.0164533 -0.102312 0.0470701
0.0291193 -0.0322227 0.0859652
0.0319887 0.0654444 0.0873814
0.0488098 0.168894 0.0642796
0.0637948 0.259141 0.044639
0.0976927 0.307279 0.023463
0.140571 0.283972 0.0151735
0.196575 0.281807 -0.0219668
0.233465 0.260654 -0.0838994
0.252733 0.195775 -0.124804
0.254405 0.0762963 -0.093941
0.250956 -0.00707589 -0.0671663
0.240246 -0.0522812 -0.00831892
0.230485 -0.0683511 0.0462612
0.0538215 -0.119027 0.06655
0.0490633 -0.156912 0.0444805
0.0453914 -0.17162 0.00992948
0.0340441 -0.138572 -0.0225271
0.0389164 -0.116593 -0.0639633
0.0336933 -0.12341 -0.0390285
0.0246951 -0.137724 0.0166591
-0.00258799 -0.084715 0.0462763
0.00973315 -0.0271294 0.0775309
0.0128657 0.0585565 0.0736267
0.031836 0.151536 0.047262
0.0480911 0.236941 0.0240499
0.0858405 0.282521 -0.0033851
0.134515 0.257508 -0.0211351
0.197135 0.257637 -0.0612131
0.237883 0.24491 -0.121396
0.257145 0.18966 -0.160886
0.25934 0.0778865 -0.129869