# vtk DataFile Version 2.0
Func
ASCII
DATASET RECTILINEAR_GRID
DIMENSIONS 21 21 21
X_COORDINATES 21 double
-4.7619
-4.28571
-3.80952
-3.33333
-2.85714
-2.38095
-1.90476
-1.42857
-0.952381
-0.47619
0
0.47619
0.952381
1.42857
1.90476
2.38095
2.85714
3.33333
3.80952
4.28571
4.7619
Y_COORDINATES 21 double
-4.7619
-4.28571
-3.80952
-3.33333
-2.85714
-2.38095
-1.90476
-1.42857
-0.952381
-0.47619
0
0.47619
0.952381
1.42857
1.90476
2.38095
2.85714
3.33333
3.80952
4.28571
4.7619
Z_COORDINATES 21 double
-4.7619
-4.28571
-3.80952
-3.33333
-2.85714
-2.38095
-1.90476
-1.42857
-0.952381
-0.47619
0
0.47619
0.952381
1.42857
1.90476
2.38095
2.85714
3.33333
3.80952
4.28571
4.7619
POINT_DATA 9261
SCALARS data double 3
LOOKUP_TABLE default
-0.195596 -0.00458737 -0.00960132
-0.213429 0.0243272 0.0189325
-0.218068 0.0717094 0.0634021
-0.211132 0.132382 0.120446
-0.194341 0.198734 0.183612
-0.171404 0.256478 0.247161
-0.145633 0.292417 0.306292
-0.119321 0.293506 0.353274
-0.0953529 0.255807 0.384089
-0.0754372 0.185918 0.398524
-0.0610368 0.097751 0.398721
-0.05224 0.00842535 0.388337
-0.047717 -0.0674769 0.372529
-0.0461438 -0.122975 0.357122
-0.0476478 -0.156099 0.344162
-0.0520066 -0.17196 0.335203
-0.0585439 -0.177137 0.327977
-0.0657526 -0.171667 0.310581
-0.0717822 -0.15739 0.28215
-0.0742626 -0.132834 0.239356
-0.0708571 -0.100373 0.185328
-0.242476 -0.00201055 -0.024779
-0.264903 0.0211508 0.00866056
-0.269277 0.0634776 0.0624994
-0.256308 0.121353 0.13117
-0.228206 0.189348 0.205415
-0.19068 0.250765 0.278454
-0.14891 0.290462 0.34493
-0.107246 0.293602 0.398068
-0.0697965 0.254662 0.434666
-0.0398744 0.180184 0.455665
-0.0196355 0.0860695 0.463333
-0.0100141 -0.00811031 0.460266
-0.00923274 -0.0863069 0.450386
-0.0151303 -0.142139 0.438795
-0.0272775 -0.174538 0.427526
-0.0437795 -0.190881 0.418825
-0.0626613 -0.199316 0.411533
-0.0806412 -0.198616 0.390628
-0.0951414 -0.187329 0.356094
-0.102785 -0.162419 0.304265
-0.100767 -0.124888 0.23685
-0.258071 0.00575903 -0.0490776
-0.280713 0.0187289 -0.0179534
-0.282987 0.0494429 0.0374383
-0.264728 0.0973946 0.108699
-0.228451 0.160355 0.183907
-0.180281 0.221146 0.25576
-0.126543 0.263658 0.318218
-0.0734062 0.271003 0.367726
-0.0260278 0.235449 0.405013
0.0115912 0.162719 0.432653
0.0355156 0.06958 0.452959
0.0440272 -0.0229601 0.466057
0.0389403 -0.0981298 0.472301
0.023302 -0.150282 0.473691
-0.00127664 -0.179805 0.470063
-0.0322447 -0.196317 0.464809
-0.0648318 -0.209165 0.457891
-0.0942536 -0.215505 0.434442
-0.117061 -0.209938 0.395534
-0.129152 -0.187208 0.337942
-0.127778 -0.147163 0.262657
-0.23719 0.0164615 -0.0820734
-0.255979 0.017006 -0.0588634
-0.254874 0.0319791 -0.00971025
-0.233729 0.0651692 0.0550957
-0.194684 0.11838 0.120759
-0.143383 0.175122 0.179995
-0.0860117 0.21913 0.226681
-0.0291979 0.232559 0.262303
0.0215687 0.204922 0.29438
0.0614515 0.140156 0.327861
0.0854051 0.0547482 0.365132
0.090765 -0.0299096 0.402604
0.0788243 -0.0970344 0.434778
0.0529551 -0.141936 0.458205
0.0158798 -0.166744 0.468179
-0.0287951 -0.183252 0.468542
-0.0740881 -0.201363 0.461805
-0.113598 -0.216471 0.437008
-0.142357 -0.2189 0.39441
-0.156322 -0.202132 0.334574
-0.154146 -0.163773 0.258185
-0.182727 0.0277349 -0.113939
-0.195464 0.0161704 -0.101783
-0.192097 0.0139292 -0.0647676
-0.172655 0.0302245 -0.0148714
-0.138833 0.0701868 0.0319408
-0.0939466 0.120755 0.067812
-0.0425579 0.165508 0.0874175
0.00909885 0.186636 0.100282
0.0555469 0.171057 0.121742
0.0921948 0.119816 0.160228
0.113129 0.0479791 0.21818
0.114429 -0.0236926 0.287126
0.0962344 -0.0789318 0.353518
0.0615878 -0.113916 0.405954
0.0137865 -0.132617 0.433825
-0.0417588 -0.148544 0.43972
-0.0960828 -0.171972 0.429775
-0.14156 -0.196145 0.40013
-0.17197 -0.209068 0.354318
-0.183961 -0.202107 0.294877
-0.178326 -0.170756 0.223729
-0.100984 0.0361854 -0.134853
-0.107281 0.0140329 -0.132226
-0.104167 -0.0036335 -0.107535
-0.0914721 -0.00364316 -0.0753884
-0.0696665 0.0230517 -0.0534532
-0.0390976 0.0670319 -0.0487033
-0.00187824 0.112815 -0.0644119
0.0370966 0.143072 -0.0817356
0.0733675 0.142316 -0.0763461
0.102824 0.108207 -0.0351744
0.118733 0.0536078 0.044076
0.115647 -0.00196952 0.146981
0.092096 -0.0429745 0.250267
0.0503086 -0.0661349 0.332565
-0.00605136 -0.0771078 0.377516
-0.0699683 -0.0909993 0.385987
-0.130301 -0.118076 0.368015
-0.178273 -0.151082 0.329577
-0.206703 -0.175811 0.279432
-0.213225 -0.182154 0.224046
-0.201005 -0.162914 0.165105
-0.00865866 0.0398495 -0.1325
-0.0102171 0.00973061 -0.132817
-0.0110824 -0.0201225 -0.116149
-0.0101655 -0.0339308 -0.0997801
-0.0058953 -0.0196543 -0.103345
0.00496501 0.0178743 -0.132311
0.0233988 0.0653002 -0.186355
0.0463902 0.105834 -0.236665
0.070637 0.12121 -0.249961
0.0922946 0.106049 -0.208394
0.103726 0.0705068 -0.110319
0.0978029 0.0324908 0.0232838
0.0712745 0.0068935 0.158883
0.0253563 -0.00306714 0.264806
-0.0359141 -0.0044126 0.319892
-0.104135 -0.013614 0.324049
-0.166392 -0.0412711 0.291969
-0.212731 -0.0810997 0.240231
-0.235821 -0.117832 0.184273
-0.23436 -0.140221 0.134443
-0.213966 -0.137697 0.0917722
0.0865693 0.0362665 -0.100503
0.0885967 0.000987432 -0.0947985
0.0814639 -0.0372634 -0.0789654
0.0680409 -0.0612089 -0.0730821
0.0524111 -0.0570391 -0.0988022
0.0414044 -0.0245566 -0.160185
0.0393271 0.0258496 -0.251796
0.0453285 0.076846 -0.335293
0.0574073 0.10857 -0.369376
0.071668 0.11282 -0.331881
0.0796828 0.0967692 -0.22221
0.072882 0.0765428 -0.0677245
0.0463772 0.0665789 0.0885666
0.000416443 0.070635 0.205791
-0.0607395 0.0807413 0.259679
-0.127317 0.0796355 0.250376
-0.18593 0.055799 0.198045
-0.226224 0.0126646 0.129947
-0.241217 -0.0351091 0.068084
-0.231182 -0.0749856 0.0260988
-0.203697 -0.0927538 0.00356909
0.174971 0.0272714 -0.0424256
0.179984 -0.0105884 -0.0224666
0.166142 -0.0544882 -0.000236518
0.138776 -0.0864528 0.00176191
0.104537 -0.0910295 -0.0401134
0.073225 -0.0632302 -0.128877
0.0521455 -0.0104213 -0.253066
0.0425836 0.0498515 -0.36644
0.0438165 0.09673 -0.421541
0.0516821 0.119562 -0.392935
0.057328 0.122359 -0.28127
0.0513409 0.119312 -0.119294
0.0276017 0.124551 0.0424734
-0.0143833 0.142882 0.156244
-0.0701369 0.165888 0.196602
-0.129087 0.176111 0.164914
-0.17823 0.160722 0.0871317
-0.20797 0.119061 0.00104627
-0.212825 0.0632248 -0.0660188
-0.194989 0.00680288 -0.098156
-0.163277 -0.0329209 -0.0971403
0.241389 0.0165179 0.0282356
0.247639 -0.0224547 0.0675466
0.227848 -0.0703656 0.101944
0.189377 -0.109479 0.107153
0.141006 -0.122754 0.0577975
0.0944032 -0.100744 -0.0485446
0.0589212 -0.0474652 -0.194806
0.0374198 0.0194912 -0.329508
0.030183 0.0788815 -0.401506
0.0326903 0.118055 -0.383693
0.0362588 0.137779 -0.278223
0.031583 0.150178 -0.121856
0.0121191 0.169118 0.0300998
-0.0228692 0.200781 0.126096
-0.0685598 0.236891 0.141648
-0.11429 0.260472 0.0805753
-0.14847 0.257243 -0.0254736
-0.163398 0.221858 -0.129794
-0.155977 0.162669 -0.20153
-0.130726 0.0933824 -0.223461
-0.097308 0.0337472 -0.198889
0.278532 0.00812556 0.0923692
0.284872 -0.0307721 0.151059
0.260781 -0.0816578 0.199941
0.215066 -0.127603 0.213768
0.157725 -0.149939 0.166024
0.101063 -0.135199 0.0544378
0.0553095 -0.0839795 -0.0999219
0.0242265 -0.0135239 -0.243587
0.00886372 0.0550123 -0.324501
0.00471013 0.107307 -0.315609
0.00411675 0.140813 -0.22072
-0.000960172 0.165457 -0.0789464
-0.0164407 0.194817 0.0525252
-0.0427282 0.236664 0.121592
-0.0745549 0.283672 0.106293
-0.101936 0.320176 0.0135855
-0.115695 0.330727 -0.119962
-0.111095 0.305492 -0.241045
-0.0882302 0.248447 -0.317374
-0.0543187 0.172439 -0.331354
-0.0200974 0.0977931 -0.287424
0.282138 0.00549848 0.131758
0.287494 -0.0324234 0.205204
0.261259 -0.085724 0.267674
0.212611 -0.13847 0.293622
0.151548 -0.170239 0.256164
0.089836 -0.164002 0.152999
0.0373009 -0.117084 0.00655675
-0.00211208 -0.0459999 -0.131071
-0.0268315 0.0284147 -0.209573
-0.0406901 0.0902472 -0.203435
-0.0494531 0.133559 -0.118141
-0.0588471 0.165956 0.00650692
-0.0730487 0.200667 0.114075
-0.0914942 0.247208 0.154448
-0.108351 0.300217 0.109014
-0.11488 0.346277 -0.0121512
-0.104899 0.369531 -0.169058
-0.0772464 0.356553 -0.304833
-0.0357414 0.306951 -0.387173
0.00955253 0.231645 -0.398698
0.0463874 0.149511 -0.34437
0.256278 0.0106745 0.136169
0.260328 -0.0255724 0.216873
0.234775 -0.0809506 0.28966
0.187845 -0.140413 0.329152
0.128322 -0.181704 0.308911
0.0664244 -0.184719 0.226678
0.010433 -0.143821 0.103277
-0.0362055 -0.0744244 -0.013498
-0.0716773 0.0029971 -0.0772385
-0.0985226 0.0709298 -0.0649631
-0.120047 0.119998 0.0162587
-0.138969 0.155332 0.127382
-0.156785 0.189635 0.214713
-0.171369 0.234157 0.231713
-0.176171 0.286518 0.163105
-0.163815 0.336473 0.021382
-0.131085 0.368841 -0.152007
-0.0802571 0.368063 -0.300085
-0.0189124 0.329944 -0.391042
0.0402731 0.262554 -0.40789
0.0831582 0.18132 -0.355427
0.21481 0.0234866 0.107738
0.219225 -0.0105034 0.187885
0.198516 -0.0676625 0.266587
0.1587 -0.133259 0.319016
0.106411 -0.183394 0.319954
0.0496332 -0.195391 0.267387
-0.00563842 -0.161137 0.178019
-0.0569798 -0.0947751 0.0933627
-0.102719 -0.016557 0.0544805
-0.143857 0.0543664 0.0813501
-0.181211 0.105226 0.1656
-0.214402 0.138606 0.270088
-0.241801 0.166518 0.345143
-0.259317 0.201856 0.348466
-0.259489 0.246144 0.26752
-0.235834 0.293111 0.116009
-0.187353 0.329392 -0.0653329
-0.118829 0.338975 -0.222743
-0.0409215 0.314625 -0.324806
0.0317507 0.260839 -0.354914
0.0831217 0.188884 -0.316968
0.175416 0.0395976 0.0576909
0.183193 0.00787721 0.130463
0.171672 -0.0508124 0.210683
0.143835 -0.121198 0.274102
0.103837 -0.177888 0.296989
0.0570158 -0.19657 0.277176
0.00698419 -0.167616 0.225937
-0.0450561 -0.103713 0.177566
-0.0978553 -0.0252731 0.167323
-0.151094 0.0467487 0.212396
-0.203639 0.0962999 0.303907
-0.252621 0.123433 0.40766
-0.293631 0.139403 0.478748
-0.320725 0.158725 0.479132
-0.325513 0.18756 0.397957
-0.301725 0.224309 0.248633
-0.249516 0.25847 0.069041
-0.174354 0.275132 -0.0929348
-0.0884578 0.264648 -0.206149
-0.00728682 0.228172 -0.254266
0.0518009 0.172148 -0.23972
0.156765 0.0525539 0.00307552
0.172732 0.0226577 0.0653928
0.175015 -0.0366145 0.143167
0.163616 -0.109777 0.214206
0.140208 -0.170186 0.25657
0.107976 -0.192376 0.266541
0.0683965 -0.165707 0.249822
0.0214971 -0.102567 0.233806
-0.0319853 -0.0235055 0.248468
-0.0911502 0.048644 0.30887
-0.153995 0.0948824 0.406854
-0.216285 0.112896 0.51209
-0.271901 0.113182 0.584757
-0.313607 0.111763 0.590722
-0.332215 0.119734 0.519603
-0.321239 0.140558 0.383062
-0.280017 0.167283 0.2144
-0.213177 0.187165 0.0540926
-0.132646 0.189297 -0.0671921
-0.0530683 0.171495 -0.133361
0.00818785 0.135722 -0.144875
0.167244 0.0605625 -0.0387315
0.196427 0.0324394 0.0128044
0.216502 -0.0259944 0.0857217
0.224732 -0.0991854 0.159746
0.221243 -0.160159 0.215671
0.207051 -0.182828 0.247233
0.182694 -0.156272 0.255465
0.147037 -0.0923678 0.261843
0.100295 -0.0127173 0.292128
0.0430727 0.0585529 0.359897
-0.0228627 0.100119 0.458856
-0.0931371 0.107622 0.563235
-0.161262 0.0907634 0.638414
-0.219473 0.0667232 0.653856
-0.258233 0.0512097 0.598755
-0.270007 0.0525676 0.482001
-0.252328 0.0677938 0.331307
-0.207787 0.0871149 0.179529
-0.146329 0.0992961 0.0560728
-0.0804671 0.0992886 -0.0233796
-0.0255985 0.0852306 -0.0570761
0.192391 0.0625337 -0.059459
0.235578 0.0365474 -0.0180231
0.272395 -0.0188819 0.0472368
0.298325 -0.0886374 0.118476
0.31247 -0.146615 0.179604
0.314892 -0.167067 0.222175
0.305919 -0.13931 0.243954
0.28453 -0.074529 0.261225
0.250194 0.00472351 0.29602
0.202638 0.0738273 0.360778
0.142512 0.110112 0.451701
0.0731057 0.107638 0.548226
-0.000221424 0.0751811 0.621452
-0.0702774 0.030375 0.644885
-0.12779 -0.00757322 0.607265
-0.164236 -0.0262265 0.514336
-0.17494 -0.0246514 0.387733
-0.159913 -0.00923551 0.252986
-0.125721 0.00920773 0.136588
-0.0819756 0.0236283 0.0531389
-0.0406007 0.0294203 0.00624385
0.216928 0.05723 -0.0640773
0.271378 0.0338432 -0.0320936
0.320193 -0.0164929 0.0230572
0.358302 -0.0794352 0.0871978
0.384762 -0.131256 0.146732
0.399012 -0.147391 0.190475
0.402163 -0.118046 0.21489
0.393504 -0.0536759 0.23224
0.373315 0.0232545 0.261217
0.340111 0.0884487 0.313535
0.292993 0.119132 0.388453
0.233362 0.108451 0.470899
0.164272 0.0641965 0.537843
0.0911812 0.00366799 0.56699
0.0223529 -0.0520302 0.546708
-0.0336226 -0.0876904 0.479432
-0.0702086 -0.0990123 0.380719
-0.0845863 -0.0891539 0.269747
-0.0794507 -0.0679996 0.16857
-0.0610291 -0.0438009 0.0902811
-0.0374594 -0.0225563 0.0398131
0.224669 0.0453509 -0.0576919
0.28329 0.0247977 -0.0341968
0.33555 -0.0184774 0.00980237
0.377375 -0.0719708 0.0636939
0.408059 -0.115208 0.115975
0.426975 -0.125984 0.153993
0.436584 -0.0958128 0.173393
0.437007 -0.0342392 0.183604
0.429304 0.0378687 0.200331
0.411677 0.0974484 0.234508
0.38151 0.122936 0.288293
0.338048 0.107225 0.351889
0.281573 0.0569816 0.408021
0.215199 -0.0117622 0.438755
0.145436 -0.0778376 0.432727
0.0801468 -0.124969 0.389522
0.0268888 -0.146428 0.319288
-0.00936591 -0.142561 0.235751
-0.0278004 -0.121947 0.155865
-0.0312529 -0.0931612 0.0906711
-0.0244841 -0.0626482 0.0456099
0.203995 0.0288835 -0.0483103
0.257152 0.0113643 -0.0325115
0.303422 -0.0234131 0.000185037
0.340315 -0.0653819 0.0418592
0.367549 -0.0981321 0.0834147
0.385101 -0.102833 0.112511
0.395835 -0.0726002 0.12485
0.400635 -0.0159246 0.126895
0.401242 0.0484767 0.131322
0.395771 0.0998778 0.147763
0.381372 0.119779 0.180266
0.355562 0.101788 0.223559
0.316505 0.0515884 0.265833
0.265004 -0.0166928 0.293695
0.205287 -0.083866 0.297107
0.143781 -0.134495 0.273827
0.0877103 -0.160975 0.229426
0.0427737 -0.161734 0.173063
0.0118256 -0.14376 0.116953
-0.00526996 -0.115166 0.0694039
-0.0104638 -0.0823526 0.0350671
-0.256154 -0.00493876 0.0203339
-0.282772 0.0297798 0.0492118
-0.292319 0.0853056 0.0889544
-0.284818 0.156641 0.136637
-0.261802 0.234891 0.187813
-0.227932 0.30443 0.238447
-0.188044 0.349235 0.287974
-0.145682 0.35243 0.331667
-0.105386 0.307958 0.366416
-0.0710819 0.224102 0.391089
-0.0456409 0.118493 0.406018
-0.0307721 0.0130318 0.411959
-0.0252299 -0.0741013 0.411247
-0.027145 -0.135272 0.408092
-0.0351251 -0.170038 0.403178
-0.0471947 -0.187567 0.398591
-0.0612656 -0.197056 0.392757
-0.0745084 -0.197224 0.372898
-0.0841289 -0.188517 0.339467
-0.0876077 -0.166655 0.288735
-0.0830439 -0.131312 0.223516
-0.313016 -0.00121647 0.0115082
-0.347092 0.0253726 0.045896
-0.358342 0.0739335 0.0952509
-0.344866 0.142313 0.154466
-0.308448 0.224787 0.216225
-0.256282 0.302136 0.274582
-0.195552 0.355548 0.329077
-0.132703 0.365034 0.376652
-0.0740006 0.322107 0.415821
-0.0257684 0.234333 0.4465
0.00839899 0.121913 0.469164
0.0254387 0.0102799 0.483109
0.0272409 -0.0799579 0.488979
0.0167284 -0.14146 0.489914
-0.00371601 -0.174976 0.486812
-0.0300014 -0.192949 0.482705
-0.0584577 -0.207012 0.477527
-0.0842046 -0.214645 0.454951
-0.103658 -0.212544 0.416338
-0.113337 -0.193881 0.357249
-0.111148 -0.155945 0.278503
-0.328638 0.00775894 -0.0129822
-0.363693 0.0205758 0.0199737
-0.373704 0.0543131 0.0725105
-0.355199 0.111719 0.136184
-0.310052 0.191231 0.199976
-0.246052 0.27224 0.256504
-0.171721 0.334426 0.304482
-0.0956429 0.354013 0.344972
-0.0255401 0.319109 0.381415
0.0316521 0.235502 0.415875
0.0702457 0.124686 0.449298
0.0864842 0.014501 0.478366
0.0824626 -0.0727465 0.499719
0.0622137 -0.130004 0.5129
0.0293551 -0.159715 0.516571
-0.0114552 -0.177505 0.515297
-0.0536902 -0.197131 0.510496
-0.0910679 -0.214641 0.486128
-0.119233 -0.222355 0.444729
-0.134128 -0.210274 0.382021
-0.133912 -0.173739 0.29766
-0.298454 0.0195401 -0.0530378
-0.32895 0.0158174 -0.0268471
-0.335882 0.0299487 0.0223188
-0.315819 0.0706134 0.0829019
-0.269867 0.141588 0.139348
-0.205084 0.222358 0.183579
-0.129607 0.291712 0.213387
-0.0523034 0.32393 0.235695
0.0190994 0.302898 0.262043
0.0768431 0.231433 0.298005
0.114304 0.13085 0.345332
0.127129 0.0300303 0.396977
0.116959 -0.0479243 0.443182
0.0880021 -0.0964668 0.477422
0.0447262 -0.120083 0.493102
-0.00743117 -0.137188 0.495653
-0.0601158 -0.162867 0.489723
-0.105846 -0.191781 0.46419
-0.138946 -0.211735 0.420343
-0.155524 -0.210712 0.358141
-0.155392 -0.181095 0.276866
-0.227246 0.031507 -0.0979276
-0.249912 0.0121215 -0.0811747
-0.254591 0.00510025 -0.0401295
-0.238538 0.0262743 0.0101967
-0.202179 0.0840473 0.0511588
-0.149584 0.161177 0.0734822
-0.0865629 0.235857 0.0743317
-0.020706 0.281511 0.0693188
0.0405541 0.278712 0.0795963
0.0904444 0.225922 0.115849
0.121933 0.142831 0.180794
0.12994 0.0579791 0.26248
0.114891 -0.00553146 0.342316
0.0801706 -0.0416425 0.40484
0.0300226 -0.0570971 0.436636
-0.0287521 -0.072287 0.441674
-0.0863931 -0.103377 0.4293
-0.134723 -0.143305 0.397256
-0.167071 -0.177729 0.350343
-0.18032 -0.191815 0.290819
-0.176608 -0.175117 0.219691
-0.122788 0.0411519 -0.134087
-0.13694 0.0082919 -0.124821
-0.142017 -0.0176839 -0.0912108
-0.135747 -0.0155794 -0.0526339
-0.11707 0.0279407 -0.0317798
-0.0863519 0.0995136 -0.0380569
-0.0460369 0.178179 -0.0737798
-0.00146766 0.237311 -0.113388
0.0416997 0.254724 -0.124837
0.0781401 0.224169 -0.0908689
0.100556 0.162727 -0.00783835
0.102933 0.0977101 0.106385
0.0839624 0.0518041 0.222594
0.0455515 0.0308386 0.314001
-0.00870156 0.0259658 0.360858
-0.0710641 0.0150442 0.364942
-0.130153 -0.0185878 0.340139
-0.177139 -0.0681537 0.296319
-0.204579 -0.117571 0.244217
-0.210374 -0.149921 0.190765
-0.1992 -0.151641 0.137046
-0.00783416 0.0468857 -0.144361
-0.015517 0.0044322 -0.135108
-0.0249752 -0.0359561 -0.104099
-0.0337273 -0.0503236 -0.0750466
-0.0383537 -0.0212629 -0.074894
-0.0348223 0.0429879 -0.112432
-0.0215379 0.123934 -0.187511
-0.00107047 0.195822 -0.263991
0.0227521 0.233023 -0.299064
0.0457462 0.225598 -0.268807
0.0601686 0.18738 -0.169303
0.0588095 0.143864 -0.0251164
0.038387 0.117155 0.123258
-0.000887394 0.113248 0.237245
-0.0559436 0.121577 0.291828
-0.118555 0.118493 0.287746
-0.175833 0.0865696 0.243997
-0.218084 0.0306952 0.182977
-0.237877 -0.0328249 0.123389
-0.234056 -0.0854896 0.0767786
-0.213824 -0.109969 0.043854
0.108413 0.0464119 -0.119859
0.106117 -0.00132147 -0.100945
0.0905003 -0.0510221 -0.0653674
0.0651988 -0.0776192 -0.041115
0.0363678 -0.0618572 -0.0591362
0.0124359 -0.00568052 -0.127345
-0.000845283 0.0766296 -0.241074
-0.00319892 0.158865 -0.35402
0.00334172 0.213764 -0.413886
0.0151491 0.228439 -0.390812
0.0239638 0.213125 -0.281243
0.0214694 0.191096 -0.116413
0.00248178 0.183858 0.0526624
-0.0343026 0.198018 0.176815
-0.0863665 0.221776 0.227725
-0.144714 0.230768 0.206416
-0.196427 0.206133 0.137952
-0.231413 0.148725 0.0568711
-0.242655 0.0735755 -0.0104499
-0.230198 0.00051093 -0.0483555
-0.203219 -0.0493313 -0.0575445
0.216034 0.041923 -0.063468
0.219153 -0.00670323 -0.0263675
0.198127 -0.0617889 0.020338
0.158569 -0.098362 0.0452
0.109258 -0.095524 0.0139076
0.0622042 -0.0490089 -0.0807168
0.0267674 0.03144 -0.228067
0.00585127 0.120172 -0.37346
-0.000968629 0.189257 -0.45739
0.00276509 0.223733 -0.445574
0.00847629 0.229946 -0.335224
0.00722309 0.228511 -0.163265
-0.00773821 0.240166 0.0109456
-0.0387988 0.272445 0.130283
-0.0837978 0.312934 0.165361
-0.133392 0.33734 0.118587
-0.175337 0.325202 0.0211366
-0.200376 0.272087 -0.0806888
-0.203119 0.189639 -0.154315
-0.185099 0.098723 -0.181555
-0.156244 0.0235001 -0.164406
0.296705 0.0382736 0.0102956
0.303821 -0.00831084 0.0703016
0.2792 -0.0663016 0.132801
0.230265 -0.112065 0.164018
0.167827 -0.123285 0.127218
0.106093 -0.0895199 0.0156424
0.0567247 -0.0151849 -0.154243
0.0243369 0.0751897 -0.322298
0.00960565 0.153894 -0.42485
0.00867326 0.204669 -0.42537
0.0131025 0.229757 -0.322329
0.014204 0.246684 -0.156876
0.00448657 0.275169 0.00641561
-0.0187485 0.323823 0.106211
-0.0532802 0.380412 0.114398
-0.089938 0.421629 0.0361589
-0.118151 0.425548 -0.0915363
-0.130633 0.382067 -0.213061
-0.124557 0.298463 -0.291639
-0.10332 0.195213 -0.307698
-0.0768642 0.0989481 -0.265101
0.34074 0.0398881 0.0796341
0.350329 -0.00237202 0.161356
0.32412 -0.0618017 0.240306
0.27093 -0.116692 0.281681
0.202563 -0.143335 0.24761
0.133865 -0.125356 0.131431
0.0772781 -0.0614172 -0.0460202
0.0381492 0.0258183 -0.222768
0.0178454 0.109574 -0.334353
0.0123905 0.172704 -0.344339
0.0143568 0.213075 -0.252832
0.0164568 0.244673 -0.103369
0.0116144 0.285876 0.0376558
-0.00237806 0.346439 0.108552
-0.0228794 0.41537 0.0842746
-0.0415867 0.471499 -0.0264512
-0.0506596 0.492129 -0.181871
-0.0459861 0.462094 -0.320057
-0.0282185 0.384029 -0.402678
-0.00310905 0.276648 -0.409931
0.0192197 0.166754 -0.347265
0.341848 0.0499403 0.123534
0.351657 0.0135073 0.220595
0.325384 -0.0466351 0.313245
0.272347 -0.110746 0.366742
0.204046 -0.153543 0.343456
0.134478 -0.153173 0.236741
0.0752649 -0.102516 0.0690943
0.0315401 -0.0218511 -0.099417
0.00504681 0.0633281 -0.206762
-0.00767698 0.134902 -0.218616
-0.01211 0.186112 -0.136966
-0.0130418 0.227052 -0.00589213
-0.0158099 0.27452 0.109455
-0.0213339 0.339534 0.15006
-0.02621 0.413689 0.0948349
-0.0235849 0.479176 -0.0439728
-0.00897997 0.513767 -0.221549
0.0177485 0.498662 -0.373271
0.0518273 0.432263 -0.461188
0.0847469 0.330107 -0.465903
0.105549 0.216773 -0.393784
0.303681 0.0693652 0.129767
0.311698 0.0392975 0.232817
0.286833 -0.0213574 0.334161
0.237748 -0.0945688 0.39988
0.174418 -0.153286 0.393833
0.10871 -0.170869 0.309586
0.0500608 -0.134812 0.168226
0.00254239 -0.0626079 0.0246787
-0.0319942 0.0215667 -0.064013
-0.055872 0.0983247 -0.067017
-0.0719252 0.156125 0.0116585
-0.0817156 0.200884 0.128935
-0.087639 0.247538 0.223163
-0.0886445 0.308391 0.239826
-0.0802035 0.378917 0.161693
-0.0570572 0.445814 0.00375269
-0.0180392 0.488824 -0.188244
0.0330206 0.487575 -0.350821
0.0871548 0.437121 -0.447277
0.132997 0.348722 -0.458652
0.157919 0.242259 -0.391364
0.242025 0.0962774 0.099891
0.248244 0.0723059 0.199645
0.227571 0.0107885 0.303953
0.186701 -0.0708272 0.380218
0.13319 -0.143819 0.394841
0.0759075 -0.177636 0.342064
0.0212303 -0.155161 0.238993
-0.0284046 -0.0911237 0.133253
-0.0714191 -0.00873355 0.0751826
-0.108726 0.0709036 0.0914185
-0.140438 0.131426 0.17598
-0.164791 0.174469 0.287931
-0.180546 0.212978 0.370486
-0.184238 0.260592 0.374297
-0.169846 0.317895 0.285234
-0.13317 0.377039 0.119676
-0.075502 0.421244 -0.0779553
-0.00372764 0.430761 -0.24877
0.0697483 0.398225 -0.357394
0.131069 0.329792 -0.385094
0.165398 0.239782 -0.337319
0.180292 0.123694 0.0457924
0.187172 0.104307 0.134569
0.174214 0.0414748 0.236723
0.145539 -0.0468378 0.321034
0.10605 -0.13011 0.356641
0.0610801 -0.175296 0.33828
0.0138674 -0.162345 0.277926
-0.0348145 -0.103268 0.214919
-0.0839063 -0.0210045 0.192308
-0.13313 0.0610488 0.232678
-0.18049 0.121794 0.328748
-0.221591 0.158663 0.442688
-0.25186 0.182648 0.523239
-0.265623 0.208883 0.526114
-0.255271 0.243986 0.439033
-0.216865 0.286349 0.278091
-0.152956 0.323945 0.0842395
-0.0713467 0.339535 -0.0907364
0.0139599 0.323866 -0.212603
0.0875081 0.278604 -0.262568
0.132486 0.211532 -0.244271
0.143243 0.143937 -0.0138185
0.156604 0.127101 0.0609256
0.15665 0.0633135 0.156886
0.144894 -0.0293826 0.2457
0.12354 -0.118343 0.299467
0.0952163 -0.169122 0.312075
0.0603866 -0.159595 0.290387
0.0181486 -0.100916 0.265965
-0.0309206 -0.0160735 0.275113
-0.0861331 0.0688419 0.337085
-0.144671 0.12841 0.444515
-0.20072 0.156206 0.563475
-0.247498 0.161469 0.648357
-0.27772 0.160915 0.659385
-0.282306 0.167555 0.584751
-0.256988 0.186439 0.438637
-0.203148 0.210918 0.256933
-0.127905 0.227443 0.083169
-0.0448703 0.226124 -0.0494091
0.0308575 0.204168 -0.121899
0.0814812 0.163396 -0.135672
0.143971 0.154129 -0.0596056
0.170735 0.13845 0.00138726
0.189428 0.0747532 0.0889985
0.198841 -0.0187735 0.177631
0.199513 -0.108441 0.243063
0.191501 -0.159196 0.277516
0.174018 -0.14849 0.283728
0.144676 -0.0864177 0.286654
0.103356 0.00245815 0.317156
0.0503025 0.0899776 0.391931
-0.0121795 0.147275 0.504784
-0.078186 0.164699 0.626315
-0.14025 0.149926 0.716498
-0.190273 0.120998 0.739587
-0.218301 0.0968272 0.683231
-0.218407 0.0887233 0.558492
-0.189815 0.0957267 0.395323
-0.137421 0.108679 0.229266
-0.0724994 0.117702 0.0921901
-0.00840656 0.116573 0.00270398
0.0383519 0.101906 -0.0379648
0.167094 0.153448 -0.0828915
0.209498 0.138427 -0.034463
0.246941 0.0770329 0.0424293
0.276131 -0.0128365 0.12533
0.296468 -0.0978901 0.193787
0.306809 -0.143908 0.238889
0.306007 -0.129 0.260597
0.292135 -0.0624391 0.27788
0.264032 0.0298278 0.31674
0.220991 0.118474 0.391949
0.163784 0.172594 0.499323
0.0970347 0.180197 0.614766
0.027076 0.147517 0.704426
-0.0384278 0.0931988 0.737116
-0.0894596 0.0405289 0.699945
-0.118323 0.00600798 0.60036
-0.12159 -0.00601329 0.461952
-0.10112 -0.000211202 0.312826
-0.0643461 0.0142245 0.181938
-0.0217998 0.0287914 0.0865217
0.0129837 0.0365448 0.0300607
0.197636 0.140413 -0.0871978
0.254444 0.126123 -0.0502224
0.307098 0.0695946 0.0137379
0.351092 -0.0118419 0.0865003
0.385476 -0.0874871 0.15138
0.408653 -0.125124 0.197034
0.420537 -0.104859 0.222373
0.419563 -0.0351383 0.241868
0.405939 0.0577745 0.27686
0.377678 0.14468 0.340715
0.333559 0.194472 0.43209
0.275926 0.194 0.532719
0.208417 0.148236 0.615298
0.136796 0.0755079 0.653599
0.0701615 0.0012905 0.634399
0.0166837 -0.0544571 0.561334
-0.0175832 -0.0832289 0.451653
-0.0309688 -0.0856778 0.327146
-0.0263609 -0.0700899 0.212204
-0.0106624 -0.0460788 0.122234
0.00619951 -0.0221084 0.0623004
0.215441 0.116717 -0.0785644
0.279542 0.103262 -0.0516297
0.338658 0.054305 -0.00140232
0.388423 -0.0149464 0.0585475
0.42784 -0.0777152 0.114469
0.455537 -0.105221 0.153773
0.473186 -0.0803239 0.174582
0.480577 -0.010945 0.187802
0.479101 0.0785152 0.210829
0.466746 0.160257 0.25556
0.440159 0.204907 0.323554
0.399029 0.19933 0.402387
0.343585 0.147345 0.471395
0.27687 0.0658734 0.509648
0.20597 -0.01981 0.504428
0.138717 -0.08857 0.456074
0.0826975 -0.129204 0.376246
0.0426561 -0.139243 0.281067
0.0197902 -0.125796 0.189598
0.0110739 -0.098481 0.114822
0.0102742 -0.065896 0.062431
0.203452 0.085273 -0.0639324
0.263824 0.0729231 -0.0462325
0.318361 0.033572 -0.00969092
0.363552 -0.0207884 0.0356319
0.398592 -0.0687111 0.0793319
0.423266 -0.0857521 0.109305
0.440221 -0.0579277 0.123145
0.450449 0.00776007 0.128119
0.456215 0.0893723 0.137935
0.455722 0.161784 0.162525
0.44535 0.19973 0.20542
0.422477 0.191452 0.259433
0.384673 0.139965 0.310397
0.332255 0.0600069 0.342971
0.269667 -0.0256212 0.346146
0.203637 -0.0970044 0.318335
0.141801 -0.142271 0.266235
0.0901888 -0.15702 0.200994
0.0523173 -0.146973 0.136575
0.0284113 -0.120957 0.0826206
0.015471 -0.0870962 0.0440946
-0.290598 -0.00609072 0.063647
-0.322552 0.0280864 0.0917604
-0.335679 0.0833358 0.1217
-0.327927 0.155224 0.151894
-0.300122 0.235285 0.180732
-0.256618 0.308812 0.207932
-0.203123 0.35775 0.239282
-0.144749 0.362989 0.274253
-0.0879876 0.317124 0.311317
-0.0388114 0.229519 0.348707
-0.00286768 0.120388 0.383476
0.0163721 0.0147707 0.411935
0.0196905 -0.0675594 0.43208
0.00976038 -0.120499 0.445197
-0.0103327 -0.147312 0.450821
-0.0351351 -0.16173 0.451948
-0.0608368 -0.176272 0.448286
-0.0828767 -0.187787 0.427131
-0.0976486 -0.192504 0.390561
-0.102674 -0.181704 0.334132
-0.0972833 -0.151623 0.260333
-0.349021 -0.00442574 0.0635567
-0.390012 0.0191707 0.0973744
-0.406331 0.06557 0.136102
-0.3932 0.134349 0.17642
-0.351438 0.220909 0.213742
-0.288042 0.306393 0.245061
-0.211168 0.369129 0.277338
-0.129353 0.385783 0.312363
-0.0512376 0.345487 0.35113
0.0145292 0.256365 0.392941
0.0612351 0.141612 0.435011
0.083888 0.0307147 0.47176
0.0840241 -0.0533449 0.498975
0.0655681 -0.104684 0.516467
0.0328126 -0.128312 0.524262
-0.0063634 -0.14225 0.526521
-0.046605 -0.162498 0.524874
-0.0814149 -0.184892 0.502781
-0.106543 -0.201511 0.463208
-0.118552 -0.199712 0.400549
-0.116926 -0.172067 0.314816
-0.360282 0.00222522 0.0398758
-0.402801 0.00924265 0.0734484
-0.41908 0.038468 0.116948
-0.402139 0.0962446 0.163731
-0.352653 0.182676 0.204465
-0.278221 0.276831 0.23331
-0.188191 0.355019 0.256436
-0.0933136 0.388478 0.280222
-0.00397347 0.36155 0.311499
0.0708429 0.279796 0.352382
0.122279 0.168118 0.401209
0.144953 0.0593747 0.449915
0.140722 -0.020777 0.490129
0.114886 -0.0663413 0.517789
0.0727022 -0.0843346 0.530845
0.0222287 -0.0969141 0.53532
-0.0287295 -0.123377 0.534528
-0.0729926 -0.158595 0.512323
-0.105946 -0.190144 0.472753
-0.123708 -0.201179 0.410148
-0.1262 -0.180967 0.322785
-0.321584 0.01183 -0.00750846
-0.359518 -0.000345838 0.0213268
-0.373766 0.00712525 0.0657241
-0.357505 0.0481306 0.114372
-0.310316 0.128944 0.151813
-0.238807 0.228015 0.170554
-0.151667 0.319996 0.174236
-0.0595967 0.373132 0.175648
0.02754 0.365923 0.190685
0.10011 0.300037 0.226449
0.149051 0.200435 0.283107
0.168966 0.10185 0.349323
0.161347 0.0317118 0.410272
0.131543 -0.00389077 0.455556
0.0851398 -0.0141766 0.477665
0.029876 -0.0247711 0.48368
-0.0254071 -0.0571983 0.48057
-0.0733153 -0.105752 0.457915
-0.108646 -0.153891 0.418126
-0.127917 -0.181843 0.360052
-0.132389 -0.174929 0.28139
-0.240421 0.0226072 -0.0670261
-0.270263 -0.00711824 -0.0446476
-0.283299 -0.0224621 -0.00183785
-0.273885 -0.000951303 0.0443025
-0.240879 0.0691549 0.0731354
-0.187626 0.168857 0.07476
-0.119718 0.271787 0.049912
-0.046102 0.344374 0.0201626
0.02432 0.360589 0.0126653
0.0836578 0.316789 0.0415096
0.123684 0.236395 0.109123
0.139043 0.154435 0.199886
0.130062 0.0992201 0.290019
0.100885 0.0770595 0.359715
0.0557164 0.0764187 0.394191
0.00246303 0.0694049 0.39878
-0.0497411 0.0326232 0.385785
-0.0939701 -0.0274186 0.355149
-0.124711 -0.0929635 0.313051
-0.139304 -0.140794 0.260817
-0.141061 -0.152721 0.198212
-0.124997 0.0333695 -0.121654
-0.146478 -0.0109157 -0.10346
-0.161397 -0.0465187 -0.0604763
-0.165168 -0.044284 -0.0164752
-0.155167 0.0129078 0.00127031
-0.130802 0.109495 -0.0190418
-0.0936751 0.219887 -0.0787383
-0.0497668 0.309866 -0.146044
-0.00531011 0.349808 -0.181142
0.0340886 0.330592 -0.161514
0.0613461 0.272994 -0.0822293
0.0709635 0.211225 0.0358926
0.0615736 0.1739 0.158293
0.0353508 0.167824 0.25314
-0.00538829 0.179504 0.29883
-0.0534329 0.178989 0.297978