# vtk DataFile Version 2.0
Func
ASCII
DATASET RECTILINEAR_GRID
DIMENSIONS 21 21 21
X_COORDINATES 21 double
-0.47619
-0.428571
-0.380952
-0.333333
-0.285714
-0.238095
-0.190476
-0.142857
-0.0952381
-0.047619
0
0.047619
0.0952381
0.142857
0.190476
0.238095
0.285714
0.333333
0.380952
0.428571
0.47619
Y_COORDINATES 21 double
-0.47619
-0.428571
-0.380952
-0.333333
-0.285714
-0.238095
-0.190476
-0.142857
-0.0952381
-0.047619
0
0.047619
0.0952381
0.142857
0.190476
0.238095
0.285714
0.333333
0.380952
0.428571
0.47619
Z_COORDINATES 21 double
-0.47619
-0.428571
-0.380952
-0.333333
-0.285714
-0.238095
-0.190476
-0.142857
-0.0952381
-0.047619
0
0.047619
0.0952381
0.142857
0.190476
0.238095
0.285714
0.333333
0.380952
0.428571
0.47619
POINT_DATA 9261
SCALARS data double 3
LOOKUP_TABLE default
-0.0218667 0.199343 -0.0404774
-0.0311073 0.195784 -0.0657082
-0.0422476 0.173859 -0.0812937
-0.0488126 0.165925 -0.0734951
-0.0606405 0.123886 -0.0591865
-0.0652156 0.101414 -0.0377815
-0.064648 0.079396 -0.0192739
-0.0582587 0.075158 0.000830726
-0.0587474 0.0234353 -0.0132551
-0.0552773 0.010655 -0.0107454
-0.0506629 0.0124426 -0.00116141
-0.0367454 0.0560707 0.0118468
-0.0201771 0.0838003 0.0138782
-0.00380544 0.0705035 -0.0266364
0.00303061 0.0928368 -0.00569628
0.00488282 0.0946727 -0.0102419
-0.000111227 0.104125 -0.00657582
-0.012699 0.129652 0.0102338
-0.017024 0.125689 0.0140362
-0.0246738 0.109128 0.0173158
-0.0294805 0.0765017 0.0113113
-0.00908826 0.216139 -0.0648528
-0.0174083 0.21437 -0.0941835
-0.0282531 0.191868 -0.110641
-0.0340882 0.182466 -0.0984957
-0.0475691 0.141824 -0.0797294
-0.0534126 0.120239 -0.0525138
-0.0547431 0.0993999 -0.0296971
-0.0508972 0.0953437 -0.00837185
-0.0545386 0.0408725 -0.0240555
-0.0535171 0.0248718 -0.0236947
-0.0503045 0.0230111 -0.0157919
-0.0356785 0.0648775 -0.0019735
-0.0169861 0.088475 0.00162325
0.00117969 0.0667795 -0.0381835
0.010264 0.088168 -0.0119354
0.0124792 0.0907249 -0.0110678
0.00613938 0.10544 -0.0022668
-0.0118783 0.142538 0.0199713
-0.0167197 0.143402 0.0269742
-0.027194 0.131257 0.0321503
-0.03365 0.0990061 0.0258722
0.0218422 0.229429 -0.096946
0.0169905 0.229786 -0.127631
0.00896262 0.207471 -0.142411
0.00553516 0.196533 -0.123924
-0.00899607 0.159106 -0.0967671
-0.0165496 0.139338 -0.0616181
-0.0216298 0.121143 -0.0328816
-0.023244 0.117645 -0.00970215
-0.032581 0.0625664 -0.0269329
-0.036586 0.0436348 -0.0310096
-0.0370166 0.0374013 -0.0283021
-0.0254953 0.0751364 -0.0167683
-0.00849784 0.0922384 -0.0136405
0.00669591 0.060651 -0.0504593
0.0172225 0.0800229 -0.0210127
0.0183331 0.0833378 -0.0128735
0.0101194 0.103859 0.00415252
-0.0136578 0.153385 0.0356714
-0.0184988 0.160889 0.0460215
-0.0313589 0.154821 0.0533287
-0.0390259 0.124296 0.0461258
0.0646465 0.237359 -0.129266
0.0658503 0.237165 -0.160793
0.062707 0.212709 -0.17284
0.0625761 0.198813 -0.148307
0.0462715 0.161237 -0.112869
0.0358508 0.141514 -0.0685764
0.0254773 0.125021 -0.0308016
0.0156822 0.12404 -0.00168855
-0.000901792 0.0703361 -0.0128442
-0.0122604 0.0520444 -0.0155979
-0.0185262 0.0454828 -0.0151102
-0.0159657 0.0835842 -0.00784345
-0.00590655 0.0989618 -0.00733884
0.00167154 0.063955 -0.0410436
0.0126367 0.0820995 -0.0114699
0.0132719 0.0863126 0.00155799
0.00606335 0.110066 0.0237792
-0.0157093 0.165544 0.0594604
-0.0194887 0.176737 0.0716417
-0.0315376 0.172933 0.0786783
-0.0388493 0.141638 0.0687158
0.141952 0.243003 -0.171587
0.151224 0.248199 -0.203337
0.156449 0.228818 -0.213577
0.162612 0.215336 -0.183146
0.153114 0.18886 -0.131794
0.145726 0.174976 -0.0715189
0.135224 0.16355 -0.0189908
0.119937 0.1607 0.0160003
0.0992869 0.109635 0.01289
0.0817752 0.0863646 0.00750926
0.0693946 0.0711235 0.000538876
0.0601967 0.0961054 0.00342364
0.0590114 0.0963827 -0.00158013
0.0501194 0.0434153 -0.0367167
0.058519 0.0564192 -0.0121335
0.0511111 0.0607498 0.00418229
0.0368836 0.0929483 0.0340055
0.0025753 0.166943 0.0847758
-0.000417998 0.190086 0.0997609
-0.0164859 0.198795 0.108933
-0.0260941 0.174674 0.0973034
0.188606 0.24249 -0.20613
0.202151 0.250232 -0.241138
0.211506 0.23341 -0.251929
0.22166 0.220158 -0.217445
0.210768 0.199643 -0.152369
0.20108 0.189419 -0.0764762
0.185474 0.181606 -0.00625072
0.162126 0.17944 0.0405206
0.132967 0.131545 0.055179
0.106297 0.107533 0.056781
0.0853511 0.0890757 0.0497672
0.0610645 0.107363 0.0480231
0.0464292 0.0993164 0.0353699
0.0220784 0.0364387 -0.00655059
0.0284403 0.0458097 0.00879166
0.0183622 0.0498467 0.0208214
0.00510186 0.0864113 0.0499004
-0.0254022 0.170196 0.105276
-0.0237559 0.199323 0.119898
-0.0348087 0.214224 0.12845
-0.0398065 0.193234 0.115571
0.216834 0.233917 -0.233377
0.231402 0.244148 -0.275589
0.241534 0.230858 -0.290225
0.254209 0.219562 -0.252749
0.238384 0.205231 -0.176483
0.224631 0.199395 -0.0848647
0.202327 0.195712 0.00555078
0.170724 0.195282 0.0684603
0.131282 0.151744 0.107199
0.094514 0.128575 0.121712
0.0638389 0.108485 0.119863
0.022981 0.12066 0.114842
-0.00625796 0.104986 0.0923939
-0.0460899 0.0331845 0.0361188
-0.041949 0.038732 0.0385935
-0.0522471 0.0415322 0.0392191
-0.0607746 0.0808631 0.0612213
-0.080041 0.171875 0.114468
-0.071321 0.204515 0.125774
-0.0725642 0.223877 0.132868
-0.0689023 0.205582 0.119982
0.24779 0.226616 -0.252848
0.26417 0.239125 -0.299612
0.27509 0.229687 -0.316543
0.289385 0.220103 -0.2793
0.26811 0.212037 -0.198618
0.250077 0.209247 -0.0988199
0.221327 0.207319 0.00459199
0.182817 0.206135 0.0831667
0.135217 0.163847 0.139533
0.0897452 0.139822 0.167299
0.0504839 0.117857 0.17252
-0.00670277 0.126177 0.166462
-0.0503852 0.106503 0.138197
-0.105473 0.030423 0.0745063
-0.103484 0.0341793 0.0656055
-0.113458 0.0364727 0.0561722
-0.116349 0.0772481 0.069449
-0.12212 0.171944 0.115314
-0.106165 0.205942 0.120596
-0.0973085 0.228059 0.123995
-0.0862863 0.212317 0.110533
0.276306 0.190746 -0.258354
0.292664 0.203934 -0.321983
0.303034 0.198033 -0.352967
0.317884 0.195364 -0.315495
0.291092 0.191282 -0.234842
0.268962 0.195565 -0.121247
0.234286 0.20173 0.0044474
0.189921 0.208774 0.103854
0.134171 0.175788 0.189038
0.0806162 0.15974 0.236076
0.0335025 0.142956 0.25214
-0.0400224 0.147364 0.247226
-0.0981696 0.121193 0.20703
-0.168992 0.0355196 0.109587
-0.168889 0.0348746 0.0835496
-0.178945 0.0332134 0.0485749
-0.176623 0.0722652 0.0411313
-0.168402 0.168993 0.0741252
-0.145844 0.201242 0.0705573
-0.126023 0.223472 0.0715589
-0.106552 0.207956 0.0625072
0.310791 0.161009 -0.246399
0.329061 0.174726 -0.319246
0.339914 0.17256 -0.359032
0.35457 0.17595 -0.323363
0.323414 0.176578 -0.246828
0.297405 0.186363 -0.12964
0.257495 0.197558 0.00460067
0.208078 0.209109 0.117427
0.147278 0.181149 0.213001
0.0884801 0.169528 0.271919
0.0366218 0.155644 0.296998
-0.0500493 0.156596 0.295135
-0.119838 0.125903 0.249548
-0.203652 0.0342201 0.131
-0.204208 0.0309246 0.0945353
-0.213763 0.0265607 0.0409824
-0.206735 0.0639399 0.0167596
-0.186555 0.161194 0.0357278
-0.159363 0.19218 0.0243032
-0.132096 0.214973 0.0214484
-0.10808 0.200925 0.0139556
0.344784 0.129398 -0.219777
0.365298 0.143071 -0.29825
0.376726 0.144298 -0.344469
0.390259 0.15423 -0.311555
0.356046 0.158935 -0.24167
0.326808 0.174264 -0.126759
0.283088 0.190313 0.00783121
0.23023 0.206488 0.127599
0.167787 0.183148 0.221826
0.10719 0.176049 0.286618
0.0542985 0.165109 0.318331
-0.0407947 0.162551 0.320489
-0.118014 0.127592 0.27306
-0.210826 0.0304478 0.138033
-0.210982 0.0247762 0.096782
-0.219922 0.0175872 0.0285837
-0.209716 0.0527771 -0.0100127
-0.181273 0.149368 -0.0046167
-0.152113 0.178835 -0.0220985
-0.121336 0.201883 -0.028685
-0.0962553 0.189336 -0.0354171
0.341443 0.096406 -0.202455
0.361289 0.11443 -0.276289
0.370749 0.124782 -0.319978
0.382359 0.140635 -0.290908
0.343775 0.160671 -0.223446
0.311814 0.183896 -0.115602
0.266113 0.204114 0.0112707
0.213849 0.217093 0.126635
0.152546 0.196302 0.216149
0.094422 0.184535 0.28117
0.0447995 0.166202 0.316069
-0.0476386 0.150167 0.321073
-0.122344 0.104272 0.276242
-0.212224 0.00106794 0.143957
-0.210654 -0.00849697 0.100961
-0.217 -0.0153729 0.0276621
-0.204245 0.0226901 -0.0184708
-0.171484 0.124204 -0.0220699
-0.14294 0.160154 -0.0420947
-0.112228 0.191958 -0.0479041
-0.088459 0.188867 -0.050608
0.319655 0.0562828 -0.182711
0.336579 0.077325 -0.251997
0.342296 0.0962982 -0.293304
0.350985 0.11912 -0.268351
0.307889 0.154556 -0.2062
0.273582 0.18727 -0.107829
0.227277 0.213871 0.00777109
0.177557 0.22634 0.116555
0.118782 0.210302 0.196741
0.0651815 0.195922 0.259873
0.0208477 0.171687 0.297724
-0.0637445 0.142589 0.30702
-0.13136 0.0859023 0.267489
-0.212775 -0.0230165 0.140616
-0.208944 -0.0367023 0.0990787
-0.212339 -0.0435001 0.0225807
-0.197951 -0.00328078 -0.030317
-0.16357 0.101751 -0.0427069
-0.137068 0.143224 -0.0647613
-0.10781 0.182675 -0.0694133
-0.0856207 0.187953 -0.0682341
0.278776 -0.00292944 -0.166412
0.29081 0.0214183 -0.234104
0.291287 0.0508794 -0.275781
0.297158 0.0815707 -0.255103
0.249088 0.137173 -0.205345
0.213016 0.182664 -0.119229
0.167238 0.219213 -0.017035
0.121573 0.232543 0.0853268
0.0654322 0.226584 0.154767
0.0172814 0.210502 0.217255
-0.0212445 0.179411 0.260103
-0.0939725 0.132772 0.277896
-0.151128 0.0617773 0.248851
-0.219407 -0.0527865 0.133394
-0.213681 -0.0734363 0.0952138
-0.213803 -0.0801972 0.01614
-0.198593 -0.0376739 -0.0451245
-0.16629 0.0710253 -0.0705402
-0.141604 0.118813 -0.0960149
-0.114617 0.16828 -0.100585
-0.09364 0.184933 -0.0955182
0.229895 -0.033928 -0.153626
0.237176 -0.0119027 -0.22072
0.234216 0.0193989 -0.264384
0.237822 0.055462 -0.247221
0.192671 0.115697 -0.203215
0.160293 0.167756 -0.123624
0.120242 0.210724 -0.0282294
0.0816358 0.229424 0.0704087
0.0328882 0.229144 0.133768
-0.0080718 0.217212 0.196481
-0.0401247 0.188161 0.243786
-0.101827 0.138274 0.267938
-0.149731 0.0642642 0.244601
-0.206554 -0.0521857 0.13236
-0.200084 -0.0737676 0.0947335
-0.198712 -0.0815503 0.0135318
-0.184588 -0.0406755 -0.051719
-0.154492 0.0647407 -0.0812005
-0.133239 0.111407 -0.109092
-0.10801 0.16033 -0.114436
-0.087819 0.177921 -0.108616
0.18578 -0.0745532 -0.151681
0.190037 -0.0548337 -0.220933
0.186007 -0.0213092 -0.267806
0.189338 0.0195584 -0.254044
0.152614 0.0850659 -0.220478
0.12862 0.143781 -0.147617
0.0993957 0.193846 -0.0581544
0.0717277 0.218472 0.0385922
0.0347377 0.227613 0.102069
0.00349367 0.220976 0.169438
-0.021049 0.19423 0.223754
-0.0699787 0.139154 0.256296
-0.108051 0.0607728 0.241254
-0.153859 -0.0561331 0.136379
-0.14914 -0.0814225 0.10012
-0.149824 -0.0912675 0.0175705
-0.141293 -0.0537122 -0.0524291
-0.121575 0.046656 -0.089721
-0.105386 0.0911265 -0.122358
-0.0858121 0.140399 -0.129188
-0.0693433 0.160879 -0.122103
0.13155 -0.104675 -0.154754
0.131887 -0.088415 -0.226428
0.126603 -0.0557837 -0.276259
0.129861 -0.0126871 -0.265152
0.103833 0.0526245 -0.239347
0.0902511 0.114314 -0.171097
0.0737886 0.168939 -0.0845849
0.0581304 0.199194 0.0113673
0.034573 0.216991 0.0798796
0.0138952 0.21701 0.153037
-0.00280808 0.195048 0.214259
-0.0381706 0.138223 0.253972
-0.0658665 0.0586028 0.245791
-0.0999176 -0.056354 0.148771
-0.0975777 -0.0846954 0.11319
-0.100635 -0.0974346 0.0306529
-0.0981318 -0.0653045 -0.042034
-0.0892191 0.0268827 -0.0851962
-0.0783284 0.066706 -0.120877
-0.0644677 0.113378 -0.129158
-0.0514448 0.134992 -0.121789
0.0692727 -0.136012 -0.160722
0.0656204 -0.125739 -0.228777
0.0594598 -0.0977626 -0.276613
0.0619796 -0.0546067 -0.267647
0.0478803 0.00274891 -0.245319
0.0449869 0.0632215 -0.181757
0.0418885 0.120399 -0.0975219
0.0367965 0.158447 -0.00737492
0.029926 0.187972 0.0721499
0.0211393 0.199506 0.149647
0.0136225 0.187894 0.2142
-0.00791145 0.133896 0.256951
-0.0247611 0.0578818 0.255092
-0.0457834 -0.0488669 0.175881
-0.045491 -0.0802025 0.141136
-0.0493052 -0.097183 0.0652411
-0.0504826 -0.0750906 -0.004418
-0.0487672 0.000109058 -0.0487598
-0.0425793 0.0302849 -0.0837962
-0.033185 0.068985 -0.0941227
-0.0226508 0.0887101 -0.0888186
0.0104552 -0.133289 -0.161098
0.000148401 -0.12481 -0.229183
-0.009583 -0.0999417 -0.277683
-0.00851262 -0.0596926 -0.271079
-0.0172737 -0.00837933 -0.25078
-0.0142045 0.0481246 -0.189559
-0.00923692 0.103036 -0.108149
-0.00456206 0.141451 -0.0210576
-0.00383434 0.172497 0.0570772
-0.00447311 0.187074 0.133641
-0.00583306 0.17968 0.198633
-0.0147183 0.129798 0.244845
-0.0219807 0.0583286 0.247104
-0.0324391 -0.0435299 0.17208
-0.0342347 -0.0728524 0.141923
-0.0401439 -0.0902519 0.0694236
-0.0460485 -0.0715522 0.00415237
-0.0527867 -0.00296941 -0.0344742
-0.0508122 0.0227827 -0.067691
-0.0455651 0.0573036 -0.0770856
-0.0356933 0.0753089 -0.0726755
-0.0268374 -0.13057 -0.160938
-0.0404644 -0.124622 -0.219955
-0.0516061 -0.104623 -0.262115
-0.0524635 -0.0690594 -0.257163
-0.0553093 -0.0282475 -0.236158
-0.0477684 0.0209936 -0.180177
-0.0366266 0.0713555 -0.105923
-0.0260692 0.10972 -0.0298143
-0.017141 0.143387 0.0432694
-0.0105133 0.162752 0.110804
-0.00567048 0.161963 0.167639
-0.00443672 0.118415 0.211496
-0.00399393 0.0549765 0.217416
-0.00617192 -0.0357181 0.158699
-0.00922054 -0.0623315 0.134557
-0.0162356 -0.0797755 0.0764869
-0.0254383 -0.066837 0.0253736
-0.0381629 -0.0112963 -0.000941448
-0.0392509 0.00738136 -0.0282664
-0.0373406 0.0348137 -0.0364427
-0.0289303 0.0496249 -0.0354308
-0.0395255 -0.120108 -0.154183
-0.0537612 -0.11587 -0.2017
-0.064635 -0.10056 -0.235784
-0.0669065 -0.0704494 -0.231281
-0.0658124 -0.039978 -0.209322
-0.0565765 0.000861064 -0.159866
-0.0430368 0.0445965 -0.0953456
-0.0304939 0.0802901 -0.0331796
-0.017496 0.11392 0.0295806
-0.00726955 0.135696 0.0831725
0.000711959 0.140036 0.127126
0.0077372 0.103331 0.165271
0.0125122 0.0492918 0.1724
0.0146811 -0.0283291 0.128437
0.0113402 -0.0509559 0.110841
0.00350746 -0.0669315 0.0693508
-0.00764117 -0.0581916 0.0347728
-0.024615 -0.014649 0.0232071
-0.0275343 -0.0013847 0.00337673
-0.0284049 0.0192218 -0.00281317
-0.0218831 0.0303036 -0.00452374
0.00310941 0.224823 -0.0451445
0.000707675 0.223102 -0.0750905
-0.0045416 0.198748 -0.0938195
-0.00759158 0.188803 -0.0845416
-0.0123595 0.141382 -0.0699891
-0.0119104 0.117703 -0.0451374
-0.00608784 0.0989626 -0.0227642
0.00414711 0.0963729 0.00232583
0.00787073 0.0548952 -0.0101268
0.0129496 0.0501977 -0.0041399
0.0173769 0.0597461 0.00966407
0.0291671 0.104439 0.0283282
0.0436068 0.133123 0.0341539
0.0577522 0.121836 -0.00729483
0.0628083 0.145909 0.0129172
0.0636463 0.150196 0.00339943
0.0574294 0.161956 0.000441842
0.038091 0.187941 0.00770706
0.0351149 0.181009 0.00739382
0.022164 0.156234 0.00539298
0.0105044 0.114041 -0.00434067
0.0119709 0.246658 -0.0722767
0.0105969 0.246765 -0.106471
0.00609883 0.220656 -0.125966
0.00437152 0.207984 -0.112031
-0.00148493 0.159891 -0.0925427
-0.00185733 0.135628 -0.0617934
0.00229549 0.117157 -0.0356669
0.0101842 0.114141 -0.0102346
0.00982178 0.0692688 -0.0264361
0.0114918 0.0607037 -0.0242051
0.013302 0.0661914 -0.0131722
0.0249914 0.109353 0.00657864
0.0409966 0.134416 0.0145795
0.0571207 0.115602 -0.0250882
0.0645619 0.139944 0.00100928
0.0667932 0.146708 -0.00200528
0.0606044 0.165617 0.00120931
0.037741 0.204567 0.0153273
0.035237 0.203528 0.0187751
0.0204553 0.182764 0.0192113
0.00760927 0.139826 0.00936298
0.0411476 0.263631 -0.107699
0.0435676 0.265706 -0.142917
0.042554 0.23855 -0.16026
0.0439259 0.223105 -0.139673
0.0375263 0.17616 -0.111222
0.035767 0.152254 -0.0724632
0.0360382 0.135464 -0.0410971
0.0382177 0.132279 -0.015018
0.0312603 0.0855454 -0.034915
0.0269928 0.0727732 -0.0391307
0.0240854 0.0727765 -0.0349433
0.0318157 0.111671 -0.0178337
0.0453481 0.1306 -0.0101297
0.0581897 0.102966 -0.045511
0.0670347 0.126858 -0.0157109
0.0689139 0.136835 -0.00994291
0.0620082 0.164345 0.00320174
0.0351685 0.218048 0.0289256
0.0334153 0.225467 0.03643
0.0172677 0.210801 0.0398491
0.00380812 0.168621 0.0294356
0.08539 0.273561 -0.141949
0.0941444 0.274762 -0.178291
0.0983917 0.24458 -0.192771
0.103329 0.225086 -0.165729
0.095161 0.177039 -0.128197
0.0905191 0.15233 -0.0794363
0.0855431 0.136656 -0.0384217
0.0789549 0.13543 -0.00679203
0.0649747 0.0893414 -0.0201658
0.0534157 0.0763456 -0.0234725
0.0447474 0.0752488 -0.022298
0.0433431 0.114191 -0.0109024
0.0496753 0.131413 -0.00704193
0.0548207 0.10073 -0.0400224
0.0642002 0.12479 -0.0103225
0.065896 0.138004 0.000573624
0.0605561 0.171414 0.0197799
0.0367217 0.23376 0.0513294
0.0362136 0.246621 0.0613859
0.0213306 0.234879 0.0654515
0.00852669 0.191344 0.052973
0.169583 0.279449 -0.188517
0.186907 0.285854 -0.224754
0.19999 0.259982 -0.237265
0.211079 0.240494 -0.204192
0.210091 0.20197 -0.150093
0.208479 0.182005 -0.0847787
0.20344 0.170294 -0.0286136
0.191679 0.166074 0.00841107
0.174259 0.119883 0.00285419
0.156914 0.0986037 -0.00417509
0.142278 0.0851945 -0.0119341
0.128495 0.109485 -0.00527085
0.122592 0.11121 -0.00699908
0.109486 0.0643851 -0.0399799
0.115703 0.084946 -0.015454
0.108385 0.101892 6.58515e-05
0.0953441 0.147861 0.0285618
0.0586379 0.232198 0.078051
0.0582969 0.259866 0.0913006
0.0392088 0.261258 0.0980749
0.0238607 0.224446 0.0839669
0.222224 0.277514 -0.224452
0.243633 0.286536 -0.264712
0.260459 0.263187 -0.278458
0.274675 0.244013 -0.241508
0.271606 0.211744 -0.173061
0.266974 0.195533 -0.0908816
0.256537 0.187211 -0.0153215
0.236477 0.182868 0.0343418
0.211885 0.138228 0.0493944
0.186466 0.113755 0.0505884
0.1644 0.0942123 0.0430504
0.13564 0.110208 0.0443895
0.116028 0.102789 0.0339103
0.0864658 0.046928 -0.00689218
0.090546 0.0647919 0.0074324
0.0798586 0.0841748 0.0182094
0.0672782 0.137841 0.0459864
0.0342611 0.235244 0.10105
0.0380331 0.271183 0.113881
0.0239311 0.279628 0.120383
0.0132003 0.245782 0.105326
0.255902 0.265508 -0.251411
0.277641 0.277404 -0.300314
0.294139 0.258321 -0.319243
0.309634 0.241872 -0.279734
0.300512 0.217352 -0.200016
0.290796 0.206561 -0.100863
0.273132 0.202861 -0.00275744
0.244259 0.199716 0.0646858
0.210834 0.158128 0.108392
0.176602 0.132134 0.125046
0.146261 0.107821 0.124084
0.101094 0.11575 0.121747
0.0666599 0.0994902 0.100158
0.0205445 0.0352461 0.0427989
0.0223192 0.049574 0.042861
0.0108535 0.0699756 0.040784
0.00260708 0.129374 0.0605635
-0.0190083 0.236973 0.113282
-0.0085255 0.278468 0.122382
-0.0125574 0.29205 0.127551
-0.0142257 0.260889 0.112923
0.28945 0.254805 -0.268998
0.312147 0.269183 -0.323801
0.327962 0.254805 -0.346423
0.343553 0.241267 -0.307883
0.326768 0.225017 -0.224372
0.311091 0.218872 -0.116505
0.28567 0.217928 -0.00378739
0.249196 0.214021 0.0811679
0.208347 0.172853 0.146025
0.16659 0.144472 0.178387
0.129162 0.116182 0.186108
0.0681786 0.118063 0.182625
0.0194781 0.0958782 0.154311
-0.0421045 0.0260303 0.0877639
-0.0423827 0.0381711 0.0754053
-0.0535836 0.058725 0.0619581
-0.0560371 0.121072 0.0721094
-0.0632943 0.234104 0.116832
-0.0458894 0.278285 0.119545
-0.0394427 0.295484 0.120944
-0.0333964 0.267346 0.105908
0.324514 0.20968 -0.270888
0.346377 0.225885 -0.344978
0.360364 0.217195 -0.384145
0.375017 0.212441 -0.346088
0.351075 0.204688 -0.263788
0.329986 0.208719 -0.140983
0.297744 0.218273 -0.00310517
0.254639 0.223043 0.104818
0.2071 0.191335 0.204902
0.158456 0.16884 0.260355
0.114623 0.142438 0.281463
0.0374899 0.138482 0.279554
-0.0257565 0.108402 0.237821
-0.104118 0.0299394 0.133179
-0.106165 0.0367498 0.101211
-0.118068 0.0546354 0.0586056
-0.115815 0.116961 0.0450073
-0.108983 0.233948 0.0747233
-0.085429 0.277243 0.0676383
-0.0678576 0.294874 0.0669754
-0.053063 0.267102 0.0576173
0.364989 0.171542 -0.252807
0.388625 0.188909 -0.337137
0.402318 0.185754 -0.38651
0.415518 0.188956 -0.350863
0.385442 0.189868 -0.274319
0.358874 0.202365 -0.148268
0.320159 0.219237 -0.00121218
0.270959 0.22923 0.120969
0.219127 0.202897 0.234104
0.166086 0.183717 0.303393
0.118745 0.158134 0.335045
0.0286332 0.148947 0.336484
-0.0461591 0.112689 0.288618
-0.13788 0.0277118 0.160162
-0.140323 0.0305755 0.116648
-0.151924 0.0457207 0.0534271
-0.145046 0.106773 0.0213219
-0.125917 0.225107 0.0354945
-0.0981325 0.267507 0.0203603
-0.073275 0.286253 0.0161464
-0.0541085 0.260593 0.00900686
0.405991 0.1309 -0.218555
0.432322 0.148716 -0.308554
0.446402 0.150631 -0.364847
0.457654 0.162244 -0.332256
0.423193 0.171098 -0.264149
0.392044 0.192119 -0.141564
0.348382 0.216184 0.00503779
0.294712 0.231635 0.133724
0.241643 0.210591 0.245598
0.187362 0.195367 0.32117
0.139969 0.17122 0.360131
0.0415344 0.157165 0.365877
-0.0405678 0.115253 0.316023
-0.141509 0.0243081 0.169349
-0.143293 0.0232831 0.120971
-0.154407 0.0350531 0.0421569
-0.144581 0.093663 -0.00512817
-0.117376 0.211548 -0.00559419
-0.0883007 0.252304 -0.0263766
-0.0606522 0.271791 -0.0339734
-0.0411117 0.248408 -0.040099
0.405462 0.0893992 -0.193544
0.431459 0.111191 -0.27692
0.443441 0.12301 -0.329249
0.452247 0.142256 -0.300801
0.411801 0.168098 -0.235477
0.376412 0.198626 -0.122015
0.329221 0.227708 0.013959
0.275444 0.240471 0.135949
0.222446 0.220841 0.239289
0.170516 0.199854 0.312938
0.126787 0.166607 0.353996
0.0312827 0.13757 0.362905
-0.0478903 0.0830634 0.31666
-0.145525 -0.0154882 0.174131
-0.145138 -0.0219247 0.12549
-0.153541 -0.0112286 0.0431518
-0.141254 0.0491889 -0.0102659
-0.109662 0.171527 -0.0193306
-0.082025 0.218886 -0.0410058
-0.0551676 0.24862 -0.0473739
-0.0375785 0.236766 -0.0499843
0.384832 0.04024 -0.16695
0.408329 0.0646209 -0.243395
0.416756 0.0858674 -0.291506
0.422425 0.113688 -0.267285
0.376557 0.156402 -0.207438
0.337762 0.197866 -0.105711
0.28879 0.234209 0.0155103
0.23696 0.247256 0.128148
0.185049 0.231699 0.216821
0.137088 0.207643 0.285503
0.0985522 0.167551 0.327783
0.0111637 0.124725 0.341254
-0.060415 0.0584263 0.301599
-0.148917 -0.0468756 0.166507
-0.145694 -0.0587689 0.121173
-0.150899 -0.0496 0.0377523
-0.137007 0.0112818 -0.020613
-0.10389 0.135904 -0.0376532
-0.0790721 0.188343 -0.0594708
-0.0544402 0.226856 -0.0642563
-0.0390603 0.225182 -0.0635635
0.33807 -0.0289202 -0.14565
0.356479 -0.00195857 -0.217349
0.359655 0.0303749 -0.263343
0.362447 0.0673657 -0.243529
0.310974 0.131296 -0.195871
0.269499 0.186458 -0.108951
0.219677 0.233073 -0.00537461
0.171173 0.247821 0.0977593
0.11897 0.241156 0.168368
0.0746842 0.214882 0.232217
0.040621 0.167131 0.276866
-0.0349548 0.107107 0.299155
-0.0956003 0.0264095 0.27158
-0.169818 -0.0850327 0.150882
-0.163992 -0.105041 0.110821
-0.165078 -0.0977605 0.0273331
-0.149629 -0.0369782 -0.037207
-0.117226 0.0891954 -0.0658678
-0.0945109 0.147235 -0.0894164
-0.0717543 0.196953 -0.0934781
-0.057047 0.208704 -0.0891955
0.286954 -0.0670658 -0.130588
0.301216 -0.0428762 -0.200821
0.301722 -0.00811268 -0.24826
0.302792 0.0351899 -0.232071
0.255193 0.104719 -0.190778
0.217882 0.167513 -0.111589
0.174092 0.221846 -0.0165077
0.132751 0.243315 0.0817365
0.0875847 0.243681 0.143544
0.0501105 0.223343 0.206192
0.0222648 0.179309 0.254515
-0.0418956 0.11719 0.283307
-0.0926733 0.0343217 0.261935
-0.154376 -0.0785368 0.145222
-0.147357 -0.0998286 0.106082
-0.146522 -0.0948362 0.0209855
-0.132237 -0.0377401 -0.0470938
-0.102978 0.0828765 -0.0798717
-0.0840172 0.138112 -0.105124
-0.0638672 0.186659 -0.109809
-0.0507155 0.19936 -0.104803
0.231868 -0.113391 -0.13049
0.242405 -0.0920309 -0.202366
0.241668 -0.0546693 -0.252643
0.242889 -0.00617063 -0.239886
0.204212 0.0691878 -0.208986
0.175799 0.139091 -0.137194
0.142978 0.2011 -0.0491905
0.112915 0.22975 0.0467411
0.0779552 0.240489 0.106154
0.049087 0.227116 0.172232
0.0276848 0.187044 0.226619
-0.0231726 0.121815 0.263811
-0.0632395 0.0361679 0.250943
-0.11221 -0.0762348 0.142316
-0.106387 -0.101603 0.104567
-0.106689 -0.10018 0.0187048
-0.09744 -0.0488899 -0.0533972
-0.0778842 0.063812 -0.092989
-0.0639765 0.115061 -0.122328
-0.049028 0.163193 -0.128188
-0.0390434 0.178825 -0.12183
0.163449 -0.146501 -0.138165
0.168688 -0.129052 -0.212725
0.165974 -0.092544 -0.266244
0.167581 -0.0419667 -0.256443
0.140175 0.0333569 -0.233043
0.122989 0.106329 -0.165658
0.103346 0.173146 -0.0806194
0.0856938 0.208546 0.0151856
0.0627487 0.229083 0.0790848
0.0433967 0.224172 0.150897
0.0287518 0.190929 0.211993
-0.00776438 0.126464 0.256366
-0.0363719 0.0416124 0.250219
-0.0715826 -0.0676064 0.14971
-0.0674849 -0.0961338 0.112173
-0.069026 -0.0990032 0.0263395
-0.0649767 -0.0555211 -0.0479561
-0.0551882 0.0460832 -0.0925896
-0.0462796 0.0907072 -0.124896
-0.0361308 0.135156 -0.131983
-0.0286207 0.151503 -0.12509
0.0792302 -0.179189 -0.153157
0.0774955 -0.168073 -0.224533
0.0718468 -0.136266 -0.276105
0.0727239 -0.0864651 -0.268284
0.0567663 -0.0187734 -0.246835
0.0508179 0.0527294 -0.182527
0.0448147 0.121817 -0.0979852
0.0379901 0.166144 -0.00680387
0.0303001 0.199387 0.0700938
0.0218149 0.207918 0.147135
0.015323 0.187461 0.211594
-0.00599375 0.129343 0.257848
-0.0221001 0.0508509 0.256639
-0.0415132 -0.048581 0.173296
-0.0386466 -0.0801068 0.13516
-0.0393216 -0.0888436 0.0558934
-0.0375112 -0.0581711 -0.0148412
-0.0322916 0.0231279 -0.0587398
-0.0273745 0.0557602 -0.0905415
-0.0193195 0.0909952 -0.098931
-0.0117146 0.104852 -0.0932526
0.0147288 -0.174222 -0.157895
0.00546975 -0.165056 -0.230084
-0.00426353 -0.136916 -0.283143
-0.00474855 -0.0908784 -0.278268
-0.0144208 -0.0305524 -0.259118
-0.0133698 0.0360337 -0.197099
-0.0103673 0.102404 -0.11493
-0.00633809 0.147415 -0.0257144
-0.00639926 0.183246 0.0500452
-0.00677596 0.196283 0.126796
-0.00744193 0.181944 0.192076
-0.0156858 0.129682 0.242516
-0.0218369 0.0573051 0.246079
-0.0302326 -0.0360076 0.167656
-0.0295433 -0.0651183 0.134645
-0.0323489 -0.0747259 0.0594781
-0.0354641 -0.0485619 -0.0063421
-0.0394602 0.0245553 -0.0442479
-0.0384531 0.0512755 -0.0744111
-0.034429 0.0811281 -0.0824888
-0.0272495 0.0925603 -0.0785025
-0.0298293 -0.168438 -0.164616
-0.0439634 -0.161752 -0.227624
-0.0562517 -0.138949 -0.274017
-0.0589437 -0.0987366 -0.270517
-0.0626211 -0.0499331 -0.249703
-0.0565457 0.00813096 -0.192162
-0.0466339 0.0688717 -0.116183
-0.0360561 0.113742 -0.0372557
-0.027725 0.1524 0.034609
-0.0208275 0.171115 0.102493
-0.0155179 0.165003 0.159188
-0.0129918 0.121195 0.206418
-0.0109292 0.0587369 0.212954
-0.0105588 -0.0221977 0.15138
-0.0111956 -0.0481379 0.12427
-0.0152147 -0.0584038 0.0644659
-0.0216966 -0.0392851 0.0139811
-0.0316092 0.0193073 -0.00986058
-0.0331958 0.0376352 -0.0340914
-0.0315741 0.0596695 -0.040792
-0.0246316 0.0676198 -0.0403686
-0.0443891 -0.154246 -0.162978
-0.0599279 -0.149028 -0.213783
-0.0724507 -0.131296 -0.25127
-0.0765749 -0.097551 -0.247769
-0.0759957 -0.0601079 -0.225284
-0.0676793 -0.011822 -0.173796
-0.0548678 0.0408028 -0.106999
-0.0420719 0.082306 -0.04197
-0.0294589 0.120452 0.0205426
-0.0190933 0.141746 0.0743022
-0.0109908 0.141737 0.117469
-0.00255132 0.106245 0.158084
0.00384613 0.0546093 0.165397
0.00827773 -0.0123905 0.119505
0.00705907 -0.0339266 0.0990564
0.00171107 -0.0430736 0.0566937
-0.00721858 -0.0289422 0.0235085
-0.0218823 0.0169569 0.0155757
-0.0249433 0.0291494 -0.00155495
-0.0255197 0.0442225 -0.00631033
-0.0195566 0.0486495 -0.00865403
0.0158328 0.219033 -0.0531439
0.0207815 0.21591 -0.0865431
0.0227294 0.188931 -0.106834
0.0254699 0.179524 -0.0948346
0.0301241 0.131327 -0.0777236
0.038007 0.111347 -0.0483675
0.0509424 0.10018 -0.0215678
0.0662031 0.103456 0.00798369
0.0735619 0.07676 -0.00158303
0.0789018 0.0825765 0.00732759
0.0807178 0.100975 0.0238933
0.0888334 0.148294 0.0457884
0.0989624 0.179364 0.0527113
0.109883 0.1732 0.00843484
0.11165 0.196388 0.0247881
0.111088 0.201985 0.0080791
0.105025 0.213501 -0.00336818
0.081247 0.23812 -0.00571386
0.0813309 0.224764 -0.0104471
0.0653759 0.193023 -0.0153295
0.0480681 0.144082 -0.0250628
0.0204578 0.243651 -0.0825448
0.0266598 0.241853 -0.120313
0.030105 0.21182 -0.141336
0.0350141 0.198542 -0.124376
0.0404968 0.147751 -0.102252
0.0490586 0.125883 -0.0670247
0.0616436 0.113996 -0.0370954
0.0754828 0.116357 -0.00785179
0.07869 0.0851209 -0.0230211
0.0799897 0.0863248 -0.0191996
0.0778596 0.10035 -0.00634052
0.0847123 0.146897 0.0169101
0.0952167 0.175712 0.0262914
0.107695 0.164015 -0.0157445
0.11161 0.189017 0.00636155
0.113116 0.198882 -0.0037712
0.108543 0.218988 -0.00905007
0.0832728 0.25678 -0.0039604
0.0852547 0.249811 -0.00483744
0.0687815 0.221221 -0.00663686
0.050535 0.170401 -0.015672
0.0465826 0.262753 -0.12017
0.0566155 0.262342 -0.158579
0.064016 0.229861 -0.17717
0.0725034 0.212571 -0.153574
0.0789688 0.160923 -0.122793
0.0873569 0.137956 -0.0800169
0.0971596 0.126417 -0.0460038
0.106176 0.127541 -0.0173386
0.103331 0.0921072 -0.0382953
0.0988126 0.087266 -0.0426067
0.0915298 0.0945012 -0.0378688
0.093947 0.137164 -0.0172474
0.101199 0.161176 -0.00781602
0.110023 0.143143 -0.0444773
0.115008 0.169846 -0.0184907
0.116524 0.185784 -0.0189978
0.112325 0.217197 -0.013433
0.0847659 0.271226 0.0047547
0.0883859 0.274175 0.00831123
0.0716036 0.251192 0.0102918
0.0529015 0.200058 0.00140584
0.0909337 0.273696 -0.154176
0.106672 0.272094 -0.193781
0.118817 0.235892 -0.209481
0.130219 0.213684 -0.179492
0.135078 0.160299 -0.139907
0.140948 0.135851 -0.0870336
0.146467 0.124549 -0.0434287
0.147503 0.126461 -0.009828
0.139993 0.0900312 -0.0241656
0.130042 0.083293 -0.0278778
0.118686 0.0881181 -0.0266194
0.112764 0.130398 -0.0126501
0.113154 0.15305 -0.00789237
0.114361 0.133115 -0.0427994
0.119872 0.161966 -0.0171216
0.121124 0.183856 -0.0125989
0.118591 0.224088 -0.000687835
0.0943241 0.289499 0.0241824
0.0991739 0.299631 0.030754
0.0836385 0.280014 0.0340555
0.0653027 0.226946 0.0238629
0.177196 0.279244 -0.202872
0.201567 0.282239 -0.241921
0.222583 0.249351 -0.255686
0.239375 0.226788 -0.220075
0.252429 0.181518 -0.164682
0.261931 0.160513 -0.0957349
0.268557 0.151176 -0.0374973
0.265995 0.14823 0.000779774
0.257372 0.106756 -0.00642111
0.243883 0.0871142 -0.0147431
0.228467 0.0752426 -0.0233955
0.211779 0.102105 -0.0136411
0.200747 0.110189 -0.0137291
0.183681 0.077844 -0.0465942
0.185367 0.105741 -0.026011
0.176765 0.135758 -0.0156596
0.165688 0.19289 0.00676361
0.127887 0.282949 0.0514413
0.131429 0.310672 0.0613506
0.110613 0.304298 0.0674945
0.0885797 0.257205 0.055537
0.231648 0.275673 -0.236987
0.258995 0.281227 -0.28049
0.28231 0.250876 -0.296258
0.300248 0.228939 -0.25755
0.310136 0.190711 -0.188537
0.315831 0.173685 -0.102671