# vtk DataFile Version 2.0
Func
ASCII
DATASET RECTILINEAR_GRID
DIMENSIONS 21 21 21
X_COORDINATES 21 double
-0.47619
-0.428571
-0.380952
-0.333333
-0.285714
-0.238095
-0.190476
-0.142857
-0.0952381
-0.047619
0
0.047619
0.0952381
0.142857
0.190476
0.238095
0.285714
0.333333
0.380952
0.428571
0.47619
Y_COORDINATES 21 double
-0.47619
-0.428571
-0.380952
-0.333333
-0.285714
-0.238095
-0.190476
-0.142857
-0.0952381
-0.047619
0
0.047619
0.0952381
0.142857
0.190476
0.238095
0.285714
0.333333
0.380952
0.428571
0.47619
Z_COORDINATES 21 double
-0.47619
-0.428571
-0.380952
-0.333333
-0.285714
-0.238095
-0.190476
-0.142857
-0.0952381
-0.047619
0
0.047619
0.0952381
0.142857
0.190476
0.238095
0.285714
0.333333
0.380952
0.428571
0.47619
POINT_DATA 9261
SCALARS data double 3
LOOKUP_TABLE default
0.0603308 0.255277 0.120732
0.0507405 0.267186 0.10878
0.0354861 0.235664 0.0891073
0.0261639 0.187623 0.0842637
0.00507302 0.0955332 0.0691019
-0.00330252 0.0299137 0.0880741
-0.00308194 -0.0145807 0.114244
0.00469045 -0.0551342 0.118728
0.00861265 -0.0413732 0.130411
0.00902386 -0.0186752 0.129981
0.00221775 0.0204168 0.124007
-0.0153799 0.058237 0.143383
-0.0343871 0.103008 0.141355
-0.0595332 0.165952 0.107054
-0.0703624 0.182527 0.0446053
-0.0804737 0.200497 -0.0410475
-0.084387 0.204715 -0.115814
-0.0837199 0.172447 -0.154982
-0.0769997 0.160799 -0.181299
-0.0694419 0.103874 -0.177828
-0.0623997 0.0432805 -0.153987
0.0982982 0.281577 0.126306
0.0935417 0.293782 0.1165
0.0814223 0.257863 0.102873
0.0733886 0.203934 0.100892
0.0513239 0.101938 0.107601
0.0400692 0.0284301 0.140837
0.0356429 -0.0224135 0.180158
0.0393618 -0.0675856 0.186628
0.0344206 -0.0559581 0.209044
0.0273798 -0.0313262 0.21392
0.0132393 0.0130974 0.210945
-0.0113798 0.0566661 0.218565
-0.0357914 0.108943 0.20311
-0.0672662 0.180914 0.153673
-0.0788415 0.206248 0.0828455
-0.0916492 0.231171 -0.01085
-0.0980662 0.239311 -0.0892457
-0.100099 0.204515 -0.124419
-0.0933677 0.192128 -0.144994
-0.0865826 0.126419 -0.13264
-0.0802839 0.0568016 -0.102038
0.132389 0.300963 0.114783
0.134489 0.313075 0.110091
0.128489 0.274202 0.10519
0.123836 0.217112 0.105295
0.102392 0.107953 0.135441
0.0882838 0.0283946 0.18279
0.0771654 -0.0278759 0.232861
0.0746397 -0.0771628 0.24052
0.0583499 -0.0686852 0.271441
0.0420753 -0.0431202 0.277588
0.0203925 0.00533841 0.272995
-0.00958415 0.0535184 0.265445
-0.036752 0.112471 0.235264
-0.0704946 0.193156 0.175619
-0.0803832 0.228476 0.103046
-0.0932783 0.262371 0.0109963
-0.101126 0.276403 -0.0594787
-0.105788 0.24099 -0.0787944
-0.100001 0.228397 -0.0887676
-0.0958626 0.153335 -0.06624
-0.0917823 0.0736127 -0.031204
0.152947 0.307857 0.104832
0.160074 0.32111 0.0994834
0.159693 0.282698 0.0936806
0.159226 0.225225 0.0934012
0.135623 0.113917 0.121295
0.117831 0.031574 0.167394
0.100171 -0.0281144 0.215649
0.0903468 -0.0798136 0.226456
0.0635638 -0.074991 0.260903
0.0389438 -0.050073 0.26753
0.0115375 -0.000133669 0.261462
-0.0205186 0.0505289 0.249876
-0.0464491 0.113761 0.217073
-0.0777739 0.201207 0.160718
-0.0825924 0.244118 0.0948301
-0.0934414 0.284903 0.0121106
-0.101013 0.303509 -0.0466263
-0.1069 0.268707 -0.0579279
-0.102855 0.253963 -0.0598019
-0.101794 0.17244 -0.0356665
-0.0994001 0.0854347 -0.00367349
0.172143 0.322506 0.039412
0.186602 0.335283 0.0461733
0.193866 0.296127 0.051176
0.197018 0.237355 0.0548483
0.177277 0.123696 0.0847102
0.157452 0.039409 0.123835
0.133817 -0.0239991 0.164876
0.115957 -0.0807301 0.172851
0.0772223 -0.0839004 0.187548
0.0430938 -0.0626193 0.182095
0.00924551 -0.0124484 0.166552
-0.0239355 0.0393742 0.148641
-0.0473305 0.107745 0.115489
-0.0736033 0.203807 0.0782343
-0.0725133 0.259653 0.0182191
-0.0796857 0.312209 -0.039433
-0.0855775 0.33989 -0.0693627
-0.0929624 0.305759 -0.0370117
-0.0902041 0.292808 -0.0292369
-0.0926714 0.202798 0.00319374
-0.0938739 0.105129 0.0324072
0.175281 0.328564 0.0174527
0.191724 0.343166 0.0272972
0.20143 0.307348 0.0300611
0.206544 0.250984 0.0321855
0.186303 0.139856 0.0403493
0.163956 0.0566083 0.0645548
0.134876 -0.00890956 0.0931869
0.110244 -0.0708048 0.0978729
0.0626212 -0.0822625 0.0984187
0.0217196 -0.0673521 0.0872892
-0.0160383 -0.021175 0.068882
-0.0488893 0.0273249 0.0553657
-0.0693157 0.0962859 0.0302306
-0.0908151 0.197261 0.0117631
-0.0841593 0.261059 -0.0390409
-0.0871376 0.32194 -0.0739783
-0.0903115 0.356579 -0.0818533
-0.0966586 0.324159 -0.0310888
-0.0925544 0.312547 -0.0179729
-0.094638 0.217996 0.0119602
-0.0956678 0.114168 0.0314243
0.164406 0.3349 0.0194737
0.178885 0.353359 0.0294622
0.186292 0.322689 0.0253221
0.191183 0.27052 0.0208637
0.168703 0.163922 0.00283055
0.144405 0.0824498 0.012185
0.112164 0.0151014 0.0273706
0.0837386 -0.0526795 0.0269622
0.0307229 -0.0728731 0.016867
-0.0141807 -0.0657514 0.00360473
-0.0544648 -0.0258158 -0.013772
-0.0864792 0.0163372 -0.0222665
-0.104798 0.0829591 -0.0394013
-0.122442 0.186496 -0.0428816
-0.111884 0.255659 -0.0846736
-0.110962 0.322774 -0.103193
-0.110331 0.363147 -0.0938017
-0.113264 0.332808 -0.0342663
-0.105479 0.323044 -0.0186788
-0.103774 0.225418 0.00407574
-0.101655 0.117834 0.0125405
0.142496 0.33229 0.0215504
0.152194 0.354034 0.0288427
0.154861 0.329858 0.0210246
0.159007 0.28453 0.0144906
0.13485 0.184907 -0.0108631
0.111313 0.107094 -0.00678617
0.0803671 0.0391812 0.00445447
0.051509 -0.0327044 -0.00394759
0.000772642 -0.0620608 -0.0149695
-0.0434919 -0.0634099 -0.0317554
-0.0833587 -0.0309156 -0.0546425
-0.114371 0.0048575 -0.0639702
-0.131484 0.0678594 -0.0807358
-0.146428 0.170005 -0.0816495
-0.134421 0.24198 -0.117842
-0.13022 0.312078 -0.128864
-0.125703 0.355589 -0.112853
-0.125389 0.327299 -0.0489897
-0.112661 0.319286 -0.0281789
-0.106469 0.222167 -0.00553922
-0.100541 0.114851 0.00212098
0.103103 0.357562 0.0951592
0.107649 0.38925 0.099318
0.106456 0.375058 0.0801175
0.110129 0.338536 0.0668506
0.0848743 0.24592 0.00593358
0.0618238 0.171578 -0.00821328
0.031758 0.103079 -0.00699877
0.00485576 0.0229823 -0.0225105
-0.0461221 -0.0118928 -0.0304085
-0.0894665 -0.0222196 -0.0361357
-0.128769 0.000972992 -0.044159
-0.156474 0.0244184 -0.0553254
-0.170724 0.0785612 -0.0715441
-0.181092 0.17859 -0.0732548
-0.167864 0.245347 -0.10205
-0.159973 0.315698 -0.112646
-0.150446 0.360243 -0.0981052
-0.143087 0.331766 -0.0526004
-0.125753 0.323802 -0.031895
-0.113775 0.224442 -0.0275557
-0.103276 0.115844 -0.0351778
0.0730272 0.370091 0.101573
0.0750292 0.408777 0.103561
0.0729228 0.402879 0.0803818
0.0779526 0.374794 0.0686564
0.0561869 0.289315 -0.00545795
0.037782 0.219618 -0.0237794
0.0141194 0.152711 -0.024975
-0.00785668 0.0691423 -0.044524
-0.050722 0.0313339 -0.0528461
-0.0878986 0.0151798 -0.0612631
-0.122319 0.0315159 -0.0729921
-0.145193 0.0459782 -0.0884071
-0.156256 0.0923788 -0.107372
-0.162677 0.18759 -0.111903
-0.149743 0.247853 -0.141115
-0.140174 0.315332 -0.154243
-0.128748 0.358462 -0.141337
-0.119958 0.32976 -0.0991117
-0.101528 0.32085 -0.0811308
-0.0891345 0.221276 -0.0794421
-0.0792185 0.113806 -0.0853028
0.0532473 0.378039 0.0722045
0.0551212 0.421353 0.0734803
0.0544039 0.421767 0.0514601
0.0609594 0.400857 0.0498531
0.0460413 0.321354 -0.0286882
0.0344904 0.256579 -0.0435952
0.0196186 0.192604 -0.042896
0.00514898 0.107441 -0.0643562
-0.0251038 0.0701635 -0.0788948
-0.0525411 0.0508746 -0.0968559
-0.0786416 0.0624399 -0.120174
-0.0948769 0.0690437 -0.141565
-0.101804 0.10755 -0.164289
-0.104836 0.196998 -0.170158
-0.0935403 0.248274 -0.20348
-0.0847408 0.310604 -0.217839
-0.0748093 0.350567 -0.206852
-0.0692682 0.321245 -0.159701
-0.053657 0.311386 -0.146615
-0.0451902 0.213025 -0.143227
-0.0398012 0.108429 -0.14279
0.0427443 0.353963 0.0523446
0.0448674 0.393471 0.0568762
0.0455137 0.394023 0.0449454
0.0518557 0.376013 0.0564714
0.0428583 0.30383 -0.00610905
0.0370881 0.245285 -0.0122923
0.0302235 0.186386 -0.0106836
0.0226513 0.107472 -0.0304176
0.00624348 0.0701035 -0.061312
-0.0104502 0.0517686 -0.0958555
-0.0272553 0.063283 -0.136145
-0.0378673 0.0688227 -0.166955
-0.0421132 0.104763 -0.196817
-0.0441073 0.18784 -0.211085
-0.0362379 0.238547 -0.241668
-0.0303855 0.298982 -0.257071
-0.0242377 0.338958 -0.248427
-0.0243482 0.312951 -0.200005
-0.0133661 0.306052 -0.192417
-0.0106289 0.212646 -0.18498
-0.0103344 0.113056 -0.177331
0.0427365 0.32675 0.053172
0.0457282 0.360556 0.0643243
0.0476119 0.359292 0.0649409
0.0533915 0.34199 0.0856283
0.0493858 0.275274 0.0448336
0.0485003 0.222399 0.0467811
0.0487428 0.168904 0.0486287
0.0481613 0.097402 0.0272545
0.0435517 0.0630632 -0.01746
0.0370657 0.0479996 -0.0630631
0.0289099 0.0611909 -0.111474
0.0236081 0.0664817 -0.146263
0.0209836 0.0997338 -0.176209
0.0173432 0.175812 -0.19338
0.0192643 0.223978 -0.215407
0.0182912 0.280948 -0.231328
0.0169038 0.319918 -0.22772
0.00806814 0.297242 -0.186518
0.012108 0.29371 -0.184896
0.00799793 0.207155 -0.179414
0.00328206 0.114417 -0.171561
0.0512817 0.284841 0.106474
0.0555745 0.311197 0.13116
0.0582703 0.308676 0.149178
0.0625586 0.293606 0.170857
0.0626945 0.236206 0.158228
0.0653269 0.192141 0.162982
0.0703085 0.147068 0.159219
0.0764418 0.0877587 0.129103
0.0790943 0.0577088 0.0743607
0.0801155 0.0469151 0.0283429
0.0777974 0.0614305 -0.0108182
0.0758187 0.0654565 -0.0467008
0.0723637 0.0932007 -0.0706621
0.0635582 0.156637 -0.082523
0.0568572 0.200629 -0.0884877
0.0459856 0.251536 -0.100949
0.0346178 0.287951 -0.103987
0.0163362 0.269725 -0.0856534
0.0122773 0.270118 -0.0868532
0.00224404 0.194583 -0.0931492
-0.00591618 0.11328 -0.0972853
0.0519691 0.281607 0.0837425
0.0544881 0.305805 0.109231
0.0546805 0.300166 0.132186
0.0563388 0.282056 0.157689
0.0575117 0.223188 0.158356
0.062539 0.179025 0.173496
0.0714466 0.136528 0.176923
0.0839728 0.0816703 0.145941
0.0914338 0.060009 0.095934
0.0981264 0.0551859 0.0551409
0.0996135 0.0735422 0.0255241
0.100178 0.0791991 0.00511531
0.094956 0.105521 -0.00379133
0.0801386 0.165591 -0.00675661
0.0645788 0.203404 -0.00664501
0.0438366 0.250025 -0.0256701
0.0228807 0.283389 -0.0407634
-0.00460636 0.265804 -0.0348669
-0.0141545 0.267136 -0.048793
-0.0273488 0.195662 -0.063299
-0.03535 0.117612 -0.0734051
0.0498546 0.266972 0.0657662
0.0512948 0.288905 0.0917178
0.0499043 0.28275 0.118353
0.0491491 0.265075 0.144097
0.0507074 0.210577 0.154562
0.056279 0.170679 0.172363
0.0664643 0.133751 0.176426
0.0828788 0.0863175 0.148967
0.0890267 0.0722538 0.107137
0.0960689 0.0720597 0.0805615
0.0961867 0.0917224 0.0717439
0.0953335 0.0960083 0.0696682
0.08528 0.117003 0.0783503
0.0631596 0.167917 0.0913146
0.0383477 0.197594 0.0974304
0.00852975 0.236599 0.0748143
-0.0200614 0.264823 0.0487917
-0.0521501 0.247746 0.0370986
-0.06448 0.249267 0.00937065
-0.0760934 0.185352 -0.0180682
-0.0800098 0.115466 -0.0380257
0.0477278 0.253496 0.0231824
0.0491642 0.27484 0.0469299
0.0480936 0.269212 0.0736355
0.0462162 0.252152 0.0998663
0.0480217 0.202502 0.111856
0.0526678 0.166819 0.130622
0.0611207 0.135385 0.136916
0.0779397 0.0942973 0.11858
0.0771941 0.0873956 0.0897935
0.0794017 0.0906168 0.0822091
0.0737588 0.109623 0.0954787
0.0683789 0.111012 0.112662
0.0520589 0.125597 0.13751
0.022754 0.167044 0.165438
-0.00952149 0.187146 0.171037
-0.0455554 0.217956 0.145922
-0.0786721 0.24047 0.110641
-0.111541 0.223386 0.0876626
-0.123341 0.224602 0.044634
-0.130242 0.167481 0.00693006
-0.1279 0.106324 -0.0203376
0.0406975 0.22557 -0.0461464
0.0439464 0.248987 -0.0242766
0.0454033 0.249137 0.00215345
0.0434595 0.2372 0.0304611
0.04545 0.200687 0.0392058
0.0465243 0.174437 0.0545827
0.04859 0.151786 0.0613217
0.0614505 0.117507 0.0561789
0.0448391 0.116784 0.0424089
0.0353223 0.118992 0.0552147
0.0183673 0.130568 0.0881221
0.00651772 0.122123 0.117158
-0.0160488 0.123218 0.15048
-0.0492601 0.150225 0.189466
-0.0856081 0.154468 0.189736
-0.122967 0.173254 0.166935
-0.15559 0.187749 0.13011
-0.183857 0.172866 0.106576
-0.191962 0.173269 0.0496009
-0.19154 0.127898 0.00748232
-0.181463 0.0822491 -0.0226069
0.0439499 0.22029 -0.0765458
0.04796 0.242303 -0.0577432
0.0509519 0.240679 -0.0341422
0.0501449 0.227224 -0.00826956
0.0506455 0.189811 0.00284636
0.0493478 0.164626 0.022755
0.0467233 0.144831 0.0362837
0.0549346 0.113322 0.0419024
0.0285843 0.116705 0.0372696
0.0107352 0.12059 0.0605338
-0.013876 0.131326 0.104297
-0.0320903 0.120541 0.1422
-0.0595616 0.117858 0.18057
-0.0963228 0.140066 0.222471
-0.132031 0.140008 0.219851
-0.16769 0.154522 0.19416
-0.197376 0.165905 0.155414
-0.221126 0.150511 0.133138
-0.225537 0.151162 0.0728383
-0.220661 0.108146 0.028752
-0.206034 0.0663636 -0.00361953
0.0396019 0.19856 -0.0862988
0.0448904 0.220797 -0.0649805
0.0497404 0.221962 -0.0381259
0.0497466 0.211584 -0.0141034
0.0496504 0.181309 0.00698937
0.0451356 0.162114 0.0322342
0.0358988 0.147865 0.052705
0.0378872 0.120445 0.0647551
-0.000341538 0.126248 0.0698249
-0.027305 0.128121 0.0998444
-0.0593523 0.132904 0.147144
-0.0820175 0.115372 0.175715
-0.111008 0.104611 0.203806
-0.146067 0.118777 0.236271
-0.177943 0.110835 0.231979
-0.207727 0.119361 0.208985
-0.230849 0.126579 0.177278
-0.247113 0.11302 0.16485
-0.247354 0.113173 0.110919
-0.238672 0.0768895 0.0701427
-0.221135 0.0438086 0.0371732
0.0307494 0.174569 -0.0808192
0.0368418 0.196662 -0.056269
0.0426083 0.201088 -0.0270915
0.0430561 0.195123 -0.00516354
0.0429803 0.172173 0.0216586
0.0365263 0.158591 0.047793
0.0232339 0.148863 0.0712179
0.0206066 0.124941 0.0854481
-0.0236096 0.131771 0.0931326
-0.0549156 0.131161 0.123512
-0.0895862 0.130434 0.168053
-0.112488 0.107713 0.182441
-0.138882 0.0909895 0.197541
-0.168159 0.0990075 0.220065
-0.193495 0.0854174 0.215497
-0.215459 0.0897476 0.199289
-0.230907 0.0945893 0.180121
-0.239768 0.083795 0.181217
-0.237513 0.0834626 0.137883
-0.227815 0.0532128 0.102552
-0.211262 0.0269715 0.0692357
0.0281773 0.24831 0.148158
0.0120993 0.256717 0.135825
-0.0107068 0.220682 0.111037
-0.0241459 0.170202 0.101663
-0.0544813 0.0708567 0.0746649
-0.06696 0.00328842 0.0875427
-0.0679632 -0.0396864 0.109592
-0.0562229 -0.0790875 0.111082
-0.052019 -0.0556309 0.121806
-0.0487012 -0.0289991 0.123505
-0.0532583 0.0107308 0.122654
-0.0686525 0.0502206 0.147469
-0.0867712 0.0902976 0.149519
-0.109755 0.137608 0.115616
-0.122962 0.143392 0.0492777
-0.132377 0.147036 -0.0445297
-0.134441 0.141227 -0.127124
-0.12891 0.111901 -0.170814
-0.120806 0.0942107 -0.200462
-0.109741 0.0439908 -0.198304
-0.0995782 -0.00637388 -0.173979
0.0721022 0.271604 0.153583
0.0610682 0.27906 0.14312
0.0414077 0.237301 0.124533
0.0291467 0.180204 0.118574
-0.00214143 0.0696713 0.115654
-0.017426 -0.00612233 0.145438
-0.0229102 -0.0552245 0.183536
-0.0150112 -0.0987317 0.188451
-0.01908 -0.0759353 0.21305
-0.0226145 -0.0459855 0.221669
-0.0337798 0.000465776 0.224752
-0.0560879 0.0471977 0.236756
-0.0798189 0.0954247 0.223482
-0.110277 0.150748 0.17119
-0.124672 0.164984 0.093985
-0.138098 0.173923 -0.0107886
-0.144084 0.170442 -0.0990391
-0.143294 0.138099 -0.138825
-0.135678 0.118459 -0.162381
-0.126291 0.0595912 -0.149958
-0.117408 0.00116148 -0.117566
0.113845 0.286111 0.136329
0.111127 0.291912 0.130573
0.0991318 0.245836 0.121539
0.0910521 0.185107 0.118565
0.0617682 0.0662856 0.143252
0.0442764 -0.0157444 0.191055
0.0322235 -0.069894 0.243891
0.0335774 -0.11686 0.252414
0.0182613 -0.0960593 0.288823
0.00547048 -0.0637867 0.299991
-0.0129828 -0.0118252 0.301523
-0.0406651 0.0412138 0.296322
-0.0672203 0.0970628 0.265529
-0.100776 0.160689 0.199361
-0.11359 0.184965 0.118652
-0.128039 0.201813 0.0138213
-0.136926 0.203013 -0.06675
-0.14109 0.169887 -0.0889806
-0.135461 0.148859 -0.100573
-0.130293 0.0806914 -0.0761816
-0.124766 0.0127992 -0.0382792
0.13634 0.290274 0.118619
0.140355 0.296198 0.111432
0.136073 0.249911 0.101902
0.133267 0.18854 0.0992995
0.103468 0.067383 0.123754
0.0827148 -0.0174264 0.172626
0.0638083 -0.0750976 0.226037
0.0569747 -0.124584 0.240026
0.0301649 -0.107305 0.281445
0.00803356 -0.0749878 0.293626
-0.0168431 -0.0204852 0.29323
-0.0466272 0.0361723 0.28323
-0.071621 0.0973737 0.248776
-0.102257 0.168627 0.184828
-0.109525 0.201598 0.110568
-0.121818 0.225595 0.0153677
-0.130533 0.231165 -0.0524311
-0.136289 0.198342 -0.0655868
-0.133016 0.174387 -0.0674782
-0.131785 0.0991465 -0.0407454
-0.128756 0.0235634 -0.0060576
0.160614 0.291884 0.035765
0.173856 0.295235 0.0400166
0.179517 0.247104 0.0424454
0.181663 0.184922 0.0455511
0.158092 0.0604252 0.0757786
0.136305 -0.0257086 0.120985
0.111429 -0.0859676 0.170943
0.0953314 -0.138724 0.184505
0.0554748 -0.128066 0.206691
0.0222547 -0.0978398 0.206534
-0.010443 -0.0417769 0.195255
-0.042189 0.0177238 0.17725
-0.0648911 0.0849326 0.140363
-0.0904562 0.164471 0.0939997
-0.0913344 0.210442 0.0241636
-0.0995983 0.245887 -0.045548
-0.106454 0.260593 -0.0828983
-0.113925 0.230413 -0.0477191
-0.111784 0.207139 -0.0384346
-0.114567 0.124015 -0.00116674
-0.115778 0.0382711 0.032175
0.161424 0.290124 0.00379954
0.177908 0.294011 0.0107769
0.18774 0.248806 0.0112526
0.19293 0.189493 0.0135726
0.170815 0.0673707 0.022902
0.147145 -0.017093 0.05448
0.116416 -0.0787088 0.0933996
0.0921091 -0.135805 0.10533
0.0414766 -0.132817 0.113107
-0.000788167 -0.108203 0.106955
-0.0395311 -0.0554579 0.0917553
-0.0719771 0.00130537 0.0781578
-0.0919564 0.0693927 0.0490106
-0.111967 0.153812 0.0218808
-0.106573 0.208214 -0.0391411
-0.109253 0.252564 -0.0850227
-0.111886 0.275073 -0.0986074
-0.116514 0.24819 -0.0435034
-0.112083 0.225977 -0.0282419
-0.113512 0.138451 0.00652804
-0.113968 0.0463193 0.0296976
0.145641 0.289865 0.00162499
0.160738 0.296666 0.00861851
0.169144 0.256512 0.00213911
0.174747 0.201874 -0.00199128
0.151979 0.0843369 -0.0189113
0.126829 0.00221141 -0.00172024
0.0926517 -0.0604699 0.0242794
0.0630391 -0.122676 0.0321859
0.00521923 -0.127793 0.0289644
-0.0433491 -0.110235 0.0203477
-0.086932 -0.0633263 0.00527756
-0.119825 -0.0129259 -0.00307822
-0.138293 0.0526286 -0.0242353
-0.153914 0.139091 -0.0357119
-0.143728 0.199208 -0.0880467
-0.140898 0.250457 -0.116786
-0.137665 0.279931 -0.112275
-0.136283 0.257093 -0.0484026
-0.126481 0.237108 -0.0309426
-0.122034 0.146958 -0.00450289
-0.117931 0.0508821 0.0067726
0.121379 0.283171 0.00332819
0.131973 0.292597 0.00799663
0.136102 0.258997 -0.00173468
0.141417 0.211586 -0.00743723
0.118016 0.101536 -0.0314424
0.0941667 0.0235983 -0.0193585
0.0612248 -0.0390887 0.00295622
0.0302108 -0.104876 0.00299108
-0.0265651 -0.119252 -0.000911268
-0.0763052 -0.110012 -0.0131751
-0.121421 -0.0705389 -0.0343116
-0.154813 -0.0267762 -0.0438437
-0.173058 0.0348358 -0.0649796
-0.186218 0.119577 -0.0735491
-0.174179 0.183392 -0.120443
-0.166776 0.239063 -0.141543
-0.15805 0.273556 -0.130686
-0.151824 0.254661 -0.0637364
-0.134998 0.237717 -0.0419596
-0.124295 0.148356 -0.0170379
-0.115115 0.0520729 -0.00719192
0.0717495 0.306863 0.0873709
0.0765166 0.326291 0.0896633
0.0768287 0.30305 0.0682085
0.0819755 0.264979 0.0547074
0.058608 0.162187 -0.00578166
0.0358565 0.0883144 -0.0122353
0.0039306 0.0261054 0.00016321
-0.026057 -0.0472404 -0.00740009
-0.0837614 -0.0652258 -0.00784329
-0.133995 -0.0640059 -0.00927755
-0.180101 -0.0337249 -0.0159986
-0.211294 -0.00382642 -0.0276052
-0.227252 0.0465455 -0.048397
-0.235343 0.125761 -0.0578465
-0.221096 0.182695 -0.097177
-0.208134 0.237931 -0.118334
-0.191795 0.274149 -0.109583
-0.174495 0.256878 -0.0639494
-0.151123 0.241207 -0.0425734
-0.131813 0.15078 -0.0384171
-0.115803 0.05385 -0.0453753
0.0356792 0.319422 0.0965193
0.0376186 0.346004 0.0973032
0.037181 0.33137 0.0722395
0.0444567 0.302142 0.0604638
0.0250758 0.206845 -0.0129522
0.00749856 0.13815 -0.0236122
-0.0177152 0.0783505 -0.0137749
-0.0431127 0.00212122 -0.0261308
-0.0929307 -0.0174983 -0.0276457
-0.137658 -0.0215149 -0.0329624
-0.179755 0.00176324 -0.0448599
-0.206779 0.0211613 -0.0618738
-0.219856 0.0616309 -0.0860996
-0.223424 0.133254 -0.0981139
-0.209 0.18235 -0.137426
-0.193101 0.234355 -0.160486
-0.173287 0.269997 -0.152752
-0.152373 0.253963 -0.110809
-0.127017 0.238812 -0.0924692
-0.106165 0.149169 -0.091965
-0.0899341 0.0538325 -0.0976142
0.0120256 0.328952 0.065773
0.0134465 0.360466 0.0663859
0.0142792 0.352458 0.0432183
0.0237349 0.330844 0.0425554
0.0110898 0.241785 -0.0346766
0.000785489 0.178484 -0.0416734
-0.0151308 0.122395 -0.0304745
-0.0327375 0.0450763 -0.0460875
-0.0693943 0.0273644 -0.0560652
-0.104087 0.0206555 -0.0732516
-0.137722 0.038815 -0.099111
-0.158038 0.0485632 -0.123508
-0.166772 0.0786276 -0.152008
-0.166115 0.14138 -0.164209
-0.153056 0.179481 -0.20668
-0.137183 0.225402 -0.229066
-0.118059 0.258155 -0.221588
-0.0991863 0.242478 -0.173275
-0.0767256 0.227788 -0.159699
-0.0597298 0.140523 -0.157567
-0.0481147 0.0488213 -0.15693
0.00831572 0.301904 0.0436722
0.00997381 0.329502 0.0481217
0.011966 0.32162 0.0362142
0.0214153 0.303168 0.0504826
0.0141451 0.221865 -0.0103431
0.00975896 0.165376 -0.00895304
0.00239344 0.114977 0.00154599
-0.00790836 0.0445988 -0.0135215
-0.0290003 0.0273887 -0.0435781
-0.0515964 0.0218662 -0.0799712
-0.0746339 0.0397214 -0.124868
-0.0891618 0.0472724 -0.160538
-0.0952077 0.0735921 -0.19684
-0.0941429 0.129504 -0.216868
-0.0846052 0.166604 -0.254541
-0.0722217 0.211261 -0.275637
-0.0577019 0.245336 -0.268721
-0.0461002 0.234586 -0.21723
-0.0289733 0.224489 -0.209806
-0.0191253 0.143339 -0.203355
-0.0137286 0.0571853 -0.195425
0.014244 0.273067 0.0463926
0.0161191 0.294988 0.058666
0.0182344 0.285283 0.0606583
0.0266798 0.267705 0.0854051
0.0224057 0.192119 0.0467321
0.0221621 0.141642 0.0551339
0.0218579 0.0968915 0.0635621
0.018946 0.0342792 0.0446919
0.0111834 0.0204426 -0.0027064
0.000493788 0.0182063 -0.0521065
-0.0120769 0.0374011 -0.105786
-0.0204536 0.0436216 -0.146101
-0.0243248 0.0662487 -0.181716
-0.0251958 0.114947 -0.203076
-0.0216478 0.148914 -0.229065
-0.017064 0.190481 -0.24802
-0.0113331 0.224374 -0.244697
-0.010373 0.217904 -0.199591
-0.00136421 0.212572 -0.198975
0.000215314 0.139413 -0.195135
-0.000202579 0.0607727 -0.188205
0.0263339 0.231109 0.109243
0.0273422 0.245894 0.137008
0.0273797 0.235027 0.15784
0.0331665 0.21972 0.183339
0.0283681 0.153487 0.173094
0.0296398 0.11173 0.182466
0.0331129 0.0750371 0.182268
0.0371714 0.0246202 0.151682
0.0375615 0.0147263 0.0921709
0.0362145 0.0166927 0.0420175
0.0317591 0.0372613 -0.000684374
0.0280997 0.0415453 -0.0414647
0.0243983 0.0585926 -0.0689515
0.0181574 0.0962672 -0.0825945
0.0132839 0.12649 -0.0886621
0.00698798 0.16316 -0.101863
0.00116168 0.195339 -0.104804
-0.00911361 0.19306 -0.0841287
-0.00947808 0.192914 -0.087174
-0.014517 0.13106 -0.0969502
-0.0180936 0.0637404 -0.104491
0.0313426 0.23071 0.0878928
0.0294653 0.244139 0.116587
0.0250409 0.230572 0.142441
0.0265757 0.212254 0.171849
0.0201924 0.144647 0.17362
0.0224251 0.102601 0.191889
0.0292811 0.0681404 0.19683
0.0404573 0.0217931 0.163132
0.0465573 0.0204101 0.106876
0.0523979 0.0279853 0.0624209
0.0533795 0.0518671 0.0315492
0.0535835 0.0570567 0.00862982
0.049021 0.0719238 -0.000659255
0.0369299 0.105642 -0.00232724
0.0230423 0.128435 0.00075093
0.00590501 0.159947 -0.0178823
-0.0111594 0.188134 -0.033189
-0.0328757 0.185894 -0.026019
-0.040141 0.186735 -0.0438381
-0.0495668 0.129598 -0.0638698
-0.0534892 0.0663416 -0.0791443
0.0347442 0.221574 0.0707376
0.0304848 0.234106 0.0993375
0.0223099 0.220873 0.128455
0.0197585 0.203186 0.157827
0.0107265 0.140311 0.168185
0.0117829 0.102213 0.187545
0.0191416 0.0726736 0.191416
0.0343618 0.0330546 0.160134
0.0400028 0.0386808 0.112587
0.0476045 0.0503477 0.0844216
0.0488474 0.0754517 0.0778603
0.0486886 0.0789396 0.0760396
0.0400258 0.0886219 0.0872099
0.0204293 0.114224 0.103851
-0.00272976 0.12885 0.114824
-0.0301558 0.152555 0.092378
-0.0565712 0.174797 0.0645551
-0.0850866 0.170943 0.0513723
-0.0962933 0.171673 0.017317
-0.104839 0.121391 -0.0177285
-0.104682 0.0659139 -0.0439261
0.0398241 0.21534 0.0241072
0.0351102 0.229145 0.0492806
0.0261963 0.217717 0.0776171
0.0212945 0.200929 0.107191
0.0106918 0.143424 0.117958
0.00955214 0.109139 0.137596
0.0144022 0.0843973 0.143167
0.029909 0.0503288 0.1213
0.0289936 0.0622542 0.0884415
0.0325334 0.076773 0.0820223
0.0290132 0.101097 0.100818
0.0249336 0.101499 0.120601
0.0105206 0.105232 0.14965
-0.0166181 0.122733 0.182356
-0.0472155 0.127756 0.192842
-0.081864 0.143116 0.166635
-0.114297 0.158597 0.127354
-0.145761 0.151979 0.100521
-0.157438 0.151736 0.0488361
-0.162207 0.106606 0.00233843
-0.156135 0.058966 -0.0309637
0.0467361 0.201092 -0.0554613
0.0453106 0.219983 -0.034026
0.0402281 0.216397 -0.00671517
0.0348404 0.204884 0.0252127
0.0263878 0.161461 0.0329002
0.0221392 0.135688 0.0497075
0.0208593 0.118012 0.0568744
0.032047 0.0888207 0.0496762
0.0160648 0.104448 0.0340462
0.00825632 0.116442 0.0499853
-0.00612247 0.132724 0.0896627
-0.016706 0.12258 0.122233
-0.0375157 0.113472 0.15968
-0.069913 0.119417 0.202718
-0.104712 0.109292 0.20598
-0.142238 0.113457 0.179996
-0.176158 0.120304 0.137201
-0.206137 0.111811 0.109017
-0.214974 0.110354 0.0419225
-0.214049 0.0740757 -0.00798804
-0.20157 0.0397959 -0.0416372
0.0550668 0.198125 -0.0896444
0.0549247 0.21663 -0.0720508
0.051754 0.212145 -0.047745
0.047453 0.199737 -0.0180104
0.0370343 0.156025 -0.00776384
0.0297988 0.131697 0.0144385
0.0232228 0.117201 0.0297058
0.0293411 0.090878 0.0347185
0.00338237 0.110639 0.0295232
-0.0128256 0.12406 0.0571496
-0.0347674 0.139363 0.108406
-0.0518126 0.12708 0.149414
-0.0775406 0.114658 0.190711
-0.113878 0.116334 0.234938
-0.147986 0.10168 0.233683
-0.184274 0.100802 0.203114
-0.215945 0.10323 0.157521
-0.24251 0.0924073 0.130933
-0.248123 0.0896608 0.0604553
-0.243403 0.0543132 0.00900437
-0.226817 0.0233101 -0.025843
0.0579903 0.181973 -0.100968
0.0607431 0.202454 -0.08075
0.0614558 0.202174 -0.0524867
0.0586114 0.193438 -0.0243691
0.050557 0.15782 -0.00138231
0.0413955 0.139489 0.0281564
0.0290038 0.129916 0.0524442
0.0287883 0.106906 0.0652397
-0.00846596 0.127426 0.0711988
-0.0338723 0.137731 0.105161
-0.0633802 0.14651 0.158189
-0.0853166 0.127275 0.187273
-0.113078 0.107567 0.215234
-0.14887 0.103495 0.246585
-0.179433 0.0816908 0.241556
-0.210628 0.0756495 0.212827
-0.236742 0.0735457 0.174791
-0.257363 0.062286 0.159927
-0.259272 0.057971 0.0977195
-0.251748 0.0271735 0.0518939
-0.233236 0.00315882 0.0182598
0.0507226 0.161807 -0.0941222
0.0554227 0.183377 -0.0701234
0.0587424 0.18744 -0.0388926
0.0570396 0.183565 -0.0130765
0.0521791 0.156095 0.0180748
0.0426979 0.143368 0.0497886
0.0273913 0.137746 0.078314
0.0227575 0.117545 0.0938383
-0.0199332 0.137233 0.102978
-0.0498 0.14389 0.135908
-0.082213 0.146578 0.1836
-0.104676 0.122066 0.196014
-0.13022 0.0973899 0.20834
-0.160804 0.0897802 0.227075
-0.184902 0.063323 0.22028
-0.208444 0.0543736 0.198589
-0.226886 0.0502918 0.174595
-0.240176 0.0405451 0.175663
-0.239654 0.0352508 0.126699
-0.231554 0.00890158 0.0888181
-0.214853 -0.009923 0.0561906
-0.0134359 0.228341 0.17569
-0.0363201 0.230934 0.16321
-0.0662877 0.191613 0.133469
-0.0840243 0.141441 0.119349
-0.121764 0.0392756 0.0797022
-0.137133 -0.0275871 0.0847807
-0.138607 -0.0683532 0.100441
-0.121701 -0.106224 0.0973328
-0.115516 -0.0762496 0.105118
-0.107328 -0.0473641 0.108369
-0.107067 -0.008036 0.11278
-0.117978 0.0343097 0.141884
-0.132922 0.0700349 0.147795
-0.151209 0.0997773 0.11556
-0.165947 0.093697 0.0471291
-0.173945 0.0793783 -0.0523796
-0.174362 0.0596825 -0.140287
-0.16388 0.0308117 -0.186418
-0.155922 0.00599856 -0.218174
-0.142153 -0.0340178 -0.217145
-0.129733 -0.067848 -0.192991
0.031002 0.247048 0.181094
0.0123304 0.247228 0.170235
-0.0151427 0.201202 0.146843
-0.0322716 0.144274 0.136541
-0.0707089 0.0305628 0.122614
-0.0883273 -0.0442826 0.146849
-0.0933064 -0.0906615 0.18099
-0.0792016 -0.131983 0.18266
-0.0790917 -0.101772 0.207482
-0.0757771 -0.0683701 0.219445
-0.0800113 -0.021041 0.228993
-0.0965449 0.0303035 0.244621
-0.116451 0.0748103 0.233622
-0.142628 0.111183 0.179834
-0.159002 0.112163 0.0982282
-0.1725 0.100148 -0.0152599
-0.178513 0.0798914 -0.111004
-0.174899 0.0468444 -0.153618
-0.168328 0.0185871 -0.179201
-0.157179 -0.0291181 -0.166716
-0.146498 -0.0687817 -0.133238
0.0742061 0.255936 0.158459
0.0639621 0.252706 0.151945
0.0446208 0.201087 0.139026
0.0318424 0.140269 0.132563
-0.00329452 0.0176222 0.150102
-0.022053 -0.0632584 0.196124
-0.0325693 -0.114064 0.248901
-0.0242112 -0.157948 0.256747
-0.0334756 -0.128918 0.296872
-0.0378673 -0.0917587 0.312893
-0.0476925 -0.0372507 0.321254
-0.0683994 0.0225616 0.318066
-0.0904915 0.0757641 0.286962
-0.120121 0.119645 0.215287
-0.135402 0.129413 0.12819
-0.151387 0.12257 0.0122824
-0.162094 0.104135 -0.0768342
-0.16574 0.0691339 -0.10101
-0.162426 0.0377961 -0.113791
-0.156737 -0.0183452 -0.0876449
-0.150149 -0.0654783 -0.0472546
0.0947856 0.257203 0.132446
0.0922219 0.252712 0.123831
0.0819513 0.199941 0.111103
0.0752685 0.138355 0.105977
0.0416171 0.0133487 0.125586
0.0206746 -0.0698697 0.175415
0.00399628 -0.123757 0.231625
0.00446975 -0.169815 0.247699
-0.0161776 -0.143791 0.294768
-0.0299094 -0.105548 0.312638
-0.0462555 -0.0471312 0.318759
-0.0686567 0.0176827 0.310142
-0.0889808 0.0771441 0.274145
-0.115665 0.128854 0.203125
-0.126025 0.146985 0.121571
-0.140613 0.145897 0.0148467
-0.151492 0.130293 -0.061445
-0.156948 0.0945978 -0.0763575
-0.156188 0.0595218 -0.0782826
-0.154519 -0.00366232 -0.0490496
-0.150629 -0.0579593 -0.0116527
0.118782 0.245206 0.0318054
0.126486 0.235311 0.0335145
0.127782 0.178958 0.0337922
0.127362 0.116725 0.0363726
0.102409 -0.0127533 0.0661799
0.0820788 -0.0966484 0.116608
0.0605593 -0.151845 0.174141
0.0514273 -0.199018 0.19303
0.0184346 -0.177884 0.222297
-0.00659889 -0.139461 0.22809
-0.0311324 -0.0773067 0.222169
-0.055799 -0.00670336 0.204065
-0.0741766 0.0601842 0.163321
-0.0962231 0.119564 0.107289
-0.100646 0.149901 0.0279227
-0.111563 0.158405 -0.054257
-0.120524 0.150456 -0.100022
-0.127411 0.118272 -0.0634654
-0.127257 0.0825107 -0.0532529
-0.12928 0.0124848 -0.0112804
-0.129487 -0.0505132 0.0268031
0.116789 0.235532 -0.0111434
0.129038 0.224083 -0.00745382
0.136338 0.169309 -0.00885242
0.140295 0.109656 -0.00595461
0.119375 -0.0182069 0.00456473