# vtk DataFile Version 2.0
Func
ASCII
DATASET RECTILINEAR_GRID
DIMENSIONS 21 21 21
X_COORDINATES 21 double
-0.47619
-0.428571
-0.380952
-0.333333
-0.285714
-0.238095
-0.190476
-0.142857
-0.0952381
-0.047619
0
0.047619
0.0952381
0.142857
0.190476
0.238095
0.285714
0.333333
0.380952
0.428571
0.47619
Y_COORDINATES 21 double
-0.47619
-0.428571
-0.380952
-0.333333
-0.285714
-0.238095
-0.190476
-0.142857
-0.0952381
-0.047619
0
0.047619
0.0952381
0.142857
0.190476
0.238095
0.285714
0.333333
0.380952
0.428571
0.47619
Z_COORDINATES 21 double
-0.47619
-0.428571
-0.380952
-0.333333
-0.285714
-0.238095
-0.190476
-0.142857
-0.0952381
-0.047619
0
0.047619
0.0952381
0.142857
0.190476
0.238095
0.285714
0.333333
0.380952
0.428571
0.47619
POINT_DATA 9261
SCALARS data double 3
LOOKUP_TABLE default
0.0482699 0.220753 0.102452
0.051203 0.23201 0.095331
0.0517239 0.219532 0.0691731
0.0475844 0.181313 0.0355174
0.0515685 0.131924 -0.0416498
0.052581 0.0812107 -0.0896826
0.0578431 0.0238384 -0.119981
0.0735785 -0.0418651 -0.144035
0.0702499 -0.114445 -0.139524
0.0678922 -0.160048 -0.126026
0.0557521 -0.180236 -0.107793
0.0519176 -0.174703 -0.108199
0.0395627 -0.151244 -0.104685
0.0180444 -0.113013 -0.0842398
-0.00623251 -0.0916037 -0.0842413
-0.0332636 -0.0822468 -0.0845767
-0.0561941 -0.0782704 -0.0906371
-0.084286 -0.0804464 -0.110913
-0.0873929 -0.0709875 -0.118616
-0.0933063 -0.0802906 -0.146688
-0.0946864 -0.0855307 -0.160193
0.0621909 0.233388 0.126895
0.0675936 0.245729 0.122703
0.0720564 0.231586 0.0968528
0.0710957 0.190788 0.0563599
0.0851939 0.135954 -0.029641
0.0939579 0.0823063 -0.0897134
0.106457 0.0226147 -0.130872
0.127457 -0.0457754 -0.15762
0.127712 -0.120595 -0.166913
0.126315 -0.165016 -0.15626
0.112585 -0.180534 -0.137139
0.10817 -0.172451 -0.129157
0.0922576 -0.145225 -0.11703
0.0638358 -0.101071 -0.088277
0.0321404 -0.0779645 -0.0864415
-0.00460621 -0.0687404 -0.088586
-0.0369311 -0.0665819 -0.0984552
-0.0759257 -0.0698878 -0.130054
-0.08208 -0.0654199 -0.141569
-0.0912939 -0.0803793 -0.177959
-0.0942239 -0.0899812 -0.196402
0.0770648 0.239122 0.141109
0.0850987 0.25072 0.136161
0.094077 0.233952 0.1101
0.0970705 0.191421 0.0668037
0.121387 0.131358 -0.0225972
0.138197 0.076013 -0.0879156
0.157184 0.0159104 -0.133634
0.181666 -0.0528683 -0.158466
0.186477 -0.127082 -0.174023
0.186242 -0.167219 -0.160038
0.172172 -0.174989 -0.134575
0.16584 -0.1632 -0.11804
0.146295 -0.13137 -0.0994038
0.111503 -0.0811519 -0.0694497
0.0755935 -0.0550139 -0.0704342
0.0330586 -0.0447382 -0.0809218
-0.00501271 -0.0440572 -0.10187
-0.0506251 -0.0485937 -0.14959
-0.0586053 -0.0509945 -0.167129
-0.0703386 -0.0742579 -0.210512
-0.075254 -0.0907389 -0.230819
0.0827858 0.242927 0.128901
0.0929787 0.253 0.125277
0.105816 0.233812 0.102027
0.112734 0.188521 0.0609381
0.142268 0.124862 -0.0197147
0.163336 0.0672745 -0.0810527
0.184794 0.00615049 -0.124926
0.209162 -0.06178 -0.14646
0.214023 -0.136816 -0.160311
0.212696 -0.174315 -0.143909
0.197978 -0.176484 -0.115181
0.18941 -0.157941 -0.0953728
0.167807 -0.118355 -0.0755065
0.130646 -0.0596927 -0.047617
0.0942153 -0.0268198 -0.0557661
0.0508025 -0.0132305 -0.0748732
0.0127197 -0.0121951 -0.105846
-0.0308079 -0.0189696 -0.161422
-0.039091 -0.0271979 -0.185325
-0.050376 -0.0594311 -0.228685
-0.0555763 -0.0838794 -0.24502
0.103986 0.229291 0.12876
0.11673 0.234197 0.113442
0.132641 0.209083 0.0873351
0.141904 0.162862 0.0498086
0.174835 0.0918897 -0.0228659
0.198914 0.0360353 -0.0735102
0.222581 -0.0192945 -0.10508
0.243821 -0.0802747 -0.112779
0.256177 -0.142221 -0.113566
0.258417 -0.163682 -0.0769194
0.249145 -0.147441 -0.0254953
0.23862 -0.126384 -0.00269015
0.216391 -0.0854594 0.0134232
0.17709 -0.0246333 0.0234088
0.144678 0.00971478 0.00704611
0.103837 0.0240714 -0.0363535
0.0688579 0.0250224 -0.0930261
0.030665 0.0198715 -0.174308
0.0232054 0.00232253 -0.209913
0.0123954 -0.0420494 -0.258027
0.00556579 -0.0782195 -0.268164
0.0932829 0.21699 0.122237
0.103908 0.217296 0.102985
0.117308 0.187396 0.0796092
0.125586 0.13868 0.0470565
0.152052 0.0624958 -0.0106361
0.171637 0.00723679 -0.047604
0.190198 -0.0437211 -0.0657188
0.203961 -0.0981412 -0.065173
0.216088 -0.149982 -0.0494106
0.218491 -0.159072 0.00229752
0.2137 -0.129294 0.0700435
0.202882 -0.104651 0.0909872
0.183686 -0.0612982 0.101721
0.149843 0.002231 0.0973093
0.126479 0.0398219 0.0756973
0.0961295 0.0567668 0.0170579
0.0722324 0.0594439 -0.0559795
0.050088 0.0553246 -0.150916
0.0462601 0.0318261 -0.19349
0.0412247 -0.0224669 -0.241999
0.0371464 -0.0685675 -0.247146
0.0719868 0.202149 0.115061
0.078029 0.197676 0.0966409
0.0850821 0.163441 0.0778432
0.0895646 0.112672 0.0485816
0.104562 0.0322908 0.00510111
0.11582 -0.0214038 -0.020989
0.125985 -0.0670946 -0.0299133
0.129801 -0.114299 -0.0258411
0.14081 -0.154554 0.00246634
0.144076 -0.150816 0.0663108
0.146004 -0.108606 0.150236
0.137031 -0.082603 0.168425
0.123633 -0.0395394 0.177027
0.0994804 0.0242084 0.166678
0.0886657 0.0636168 0.146245
0.0729137 0.0831504 0.0803931
0.0639936 0.0887503 -0.00113516
0.0625782 0.087437 -0.101633
0.0634434 0.060368 -0.14817
0.0658445 -0.00154688 -0.197631
0.0654292 -0.0563316 -0.202598
0.0657307 0.18891 0.0917934
0.0691878 0.181707 0.0745596
0.071687 0.145657 0.0577929
0.0718773 0.0940083 0.0303608
0.0779259 0.0119025 -0.00813555
0.0822064 -0.0411744 -0.0305347
0.0854042 -0.0845216 -0.0375809
0.0813404 -0.127332 -0.0364465
0.0933809 -0.16369 -0.00342999
0.0990392 -0.154621 0.0635875
0.108625 -0.107888 0.152985
0.103379 -0.0818286 0.177447
0.0969194 -0.0393145 0.194115
0.0822392 0.0252497 0.194073
0.0835051 0.0690527 0.182564
0.0801893 0.0951506 0.122974
0.0828387 0.10791 0.0444523
0.094882 0.112889 -0.0531153
0.0985951 0.087377 -0.0995594
0.1037 0.0228164 -0.14973
0.103167 -0.0367325 -0.158808
0.0603566 0.17163 0.0581503
0.0617025 0.160085 0.0437597
0.0595591 0.119974 0.0305098
0.0551259 0.0675431 0.00485928
0.0498791 -0.0167183 -0.0344208
0.0458623 -0.0647845 -0.0565169
0.0419013 -0.0985177 -0.0659423
0.0306725 -0.131685 -0.0657059
0.0469388 -0.148565 -0.0337007
0.0579779 -0.122822 0.044404
0.0783577 -0.0633458 0.15333
0.0749396 -0.0450744 0.172827
0.0738657 -0.0146545 0.190577
0.0678909 0.0373815 0.20298
0.0805228 0.0724461 0.201635
0.0905737 0.0947192 0.153211
0.106283 0.107726 0.0829434
0.135878 0.115584 -0.00110985
0.141878 0.0890803 -0.0481104
0.150372 0.0215526 -0.100841
0.149511 -0.0410043 -0.116736
0.0327667 0.156175 0.0182026
0.030548 0.141715 0.00162508
0.0236144 0.0996534 -0.0154556
0.0160123 0.0478452 -0.0416533
0.00118316 -0.0358927 -0.0889788
-0.00920564 -0.0794122 -0.112819
-0.0185499 -0.106129 -0.123197
-0.0338245 -0.132135 -0.121533
-0.0164542 -0.137135 -0.084582
-0.00234316 -0.10192 0.0029195
0.0245552 -0.0369117 0.124183
0.0239723 -0.026121 0.146092
0.0280842 -0.00648087 0.169257
0.0312126 0.0344402 0.195088
0.0520934 0.0630878 0.202014
0.0735748 0.0831933 0.166117
0.100674 0.0977709 0.106065
0.144451 0.109028 0.0338533
0.153876 0.0845752 -0.0125508
0.166493 0.017852 -0.0679157
0.166884 -0.0440532 -0.0909732
-0.00555015 0.138486 -0.0281075
-0.0107365 0.121164 -0.0518237
-0.0206349 0.0778617 -0.0771158
-0.0285024 0.0279319 -0.104309
-0.0492648 -0.0530552 -0.162981
-0.0627708 -0.0902329 -0.186966
-0.0746977 -0.108491 -0.193121
-0.0912715 -0.126871 -0.184198
-0.0743866 -0.11906 -0.134502
-0.0593767 -0.0746804 -0.033602
-0.030395 -0.00516523 0.100282
-0.0301067 -0.00315067 0.125109
-0.023883 0.00369396 0.150885
-0.01438 0.0304517 0.183498
0.0104245 0.0492348 0.193377
0.0404304 0.0634875 0.164176
0.0770643 0.0765554 0.111302
0.133067 0.0891841 0.0477845
0.147235 0.0669073 0.00110573
0.164962 0.00269665 -0.05698
0.168095 -0.0557817 -0.0853132
0.0060597 0.107987 -0.0648384
0.00497322 0.0886635 -0.0936988
0.000446888 0.0463945 -0.125106
-0.00155629 0.00184439 -0.154497
-0.014613 -0.0746004 -0.219585
-0.0217331 -0.104045 -0.241553
-0.0282718 -0.112855 -0.240641
-0.0425052 -0.120458 -0.223774
-0.0244575 -0.0995426 -0.160142
-0.0110842 -0.0446356 -0.0515467
0.0136266 0.030847 0.0837159
0.00938944 0.0285555 0.113128
0.0104233 0.0270065 0.141201
0.0141791 0.0439119 0.176366
0.0355967 0.0553316 0.187361
0.0631162 0.0651795 0.164456
0.0985162 0.0766295 0.118885
0.149195 0.0901925 0.0627277
0.166446 0.0674176 0.0195949
0.182328 0.00500071 -0.0406723
0.182972 -0.0512814 -0.0750333
0.0122858 0.0787662 -0.106401
0.0166162 0.057908 -0.142213
0.0198768 0.0175162 -0.179112
0.026146 -0.0209036 -0.207059
0.0250286 -0.0914706 -0.274636
0.0274991 -0.112512 -0.290101
0.0287324 -0.111081 -0.276307
0.0189379 -0.107451 -0.246401
0.0364691 -0.0720372 -0.166302
0.0461149 -0.00602928 -0.0503466
0.0626826 0.0759219 0.0836436
0.0530519 0.0698726 0.114202
0.0472431 0.0598081 0.138885
0.0436066 0.0655022 0.167752
0.0575118 0.0675752 0.173446
0.0792572 0.0703897 0.149427
0.110344 0.0771092 0.1072
0.152136 0.0887829 0.0557067
0.171982 0.0640911 0.0140021
0.185702 0.0035259 -0.0471296
0.184347 -0.0496564 -0.0835457
0.00441843 0.0371703 -0.159007
0.0129632 0.0153758 -0.20177
0.0242581 -0.0214538 -0.240757
0.0393007 -0.0511134 -0.260896
0.0528613 -0.112818 -0.32283
0.0661487 -0.122552 -0.328207
0.0755586 -0.107352 -0.300616
0.0713867 -0.0881779 -0.253691
0.0837246 -0.0318827 -0.164423
0.0861776 0.0493492 -0.0491073
0.0899772 0.140394 0.0722176
0.0770681 0.13098 0.100266
0.0653692 0.111264 0.115581
0.0554963 0.103493 0.127641
0.0590704 0.0926145 0.12487
0.0718621 0.0853585 0.097457
0.0948048 0.084566 0.0588563
0.122553 0.0930034 0.0149939
0.143693 0.0638494 -0.0277102
0.15484 0.00568089 -0.0850724
0.153236 -0.0435334 -0.11794
-0.0086134 0.028627 -0.17976
0.00292658 0.00550648 -0.22379
0.0191488 -0.0302001 -0.260825
0.0381234 -0.0565388 -0.274529
0.0602691 -0.1136 -0.331781
0.079511 -0.117685 -0.329793
0.0944391 -0.0959675 -0.293725
0.095042 -0.0708291 -0.237207
0.108982 -0.00454931 -0.142787
0.111407 0.0834676 -0.0267216
0.11193 0.177785 0.0901005
0.0996357 0.165809 0.119759
0.086902 0.139285 0.133866
0.0760734 0.120462 0.142887
0.074586 0.0987442 0.131944
0.0833959 0.0809547 0.100752
0.101883 0.0716707 0.0593149
0.121937 0.0744448 0.00942447
0.14356 0.043861 -0.0346763
0.152758 -0.0120779 -0.0956966
0.149529 -0.0564458 -0.130842
-0.0215293 0.0113426 -0.201883
-0.00899948 -0.0125895 -0.240825
0.00942958 -0.0464449 -0.270177
0.0292151 -0.0690135 -0.275654
0.0573948 -0.119964 -0.325563
0.0802552 -0.117568 -0.319208
0.0988814 -0.0877412 -0.281278
0.104459 -0.0546844 -0.219032
0.118882 0.0250055 -0.138345
0.122435 0.121208 -0.0341318
0.12156 0.21945 0.0679624
0.116224 0.205133 0.0987061
0.108219 0.171465 0.113226
0.101417 0.141108 0.123625
0.0959696 0.107607 0.10864
0.0988843 0.0792546 0.078103
0.108993 0.061603 0.0382229
0.115671 0.0599512 -0.0100691
0.132588 0.0277014 -0.0541701
0.136383 -0.0243755 -0.115997
0.130233 -0.0624106 -0.152956
-0.044549 -0.00296699 -0.192789
-0.0351579 -0.0274286 -0.220329
-0.0197613 -0.0599989 -0.237018
-0.0041516 -0.0798682 -0.235224
0.0229425 -0.125336 -0.276672
0.0442278 -0.118216 -0.269976
0.0623703 -0.0823279 -0.236145
0.0709904 -0.0434971 -0.176133
0.0859215 0.0472277 -0.118512
0.0931145 0.148803 -0.0312221
0.0954431 0.248728 0.055386
0.101774 0.232076 0.088041
0.103662 0.192392 0.106549
0.10611 0.152023 0.123218
0.0996086 0.108698 0.111015
0.0992123 0.0718196 0.0840991
0.102484 0.0474043 0.0481878
0.0989272 0.042331 3.4647e-05
0.109221 0.00962276 -0.0433933
0.107935 -0.0372667 -0.108644
0.100154 -0.0683966 -0.151679
-0.093204 -0.0244596 -0.145589
-0.0925878 -0.0481269 -0.156292
-0.0864361 -0.0770821 -0.155512
-0.0790548 -0.0917508 -0.15066
-0.0622309 -0.126863 -0.169928
-0.0493359 -0.112231 -0.164255
-0.0374529 -0.0682606 -0.141585
-0.0285069 -0.023847 -0.0901833
-0.0169878 0.0785904 -0.063963
-0.00688208 0.181728 0.000901755
-4.59459e-05 0.277605 0.0711926
0.020871 0.254067 0.10571
0.036338 0.203898 0.130693
0.053974 0.148533 0.153211
0.0501574 0.0931498 0.147899
0.0514089 0.0462483 0.126762
0.0523316 0.0150969 0.0944328
0.0466824 0.00841703 0.039516
0.0510622 -0.0228756 0.000954193
0.049059 -0.0597664 -0.0648765
0.0443462 -0.0790909 -0.112891
-0.0899236 -0.0223263 -0.105672
-0.0909967 -0.0468286 -0.109414
-0.088393 -0.0771288 -0.102405
-0.0875781 -0.0926422 -0.0926478
-0.0760613 -0.128457 -0.108847
-0.068535 -0.115009 -0.103499
-0.0597348 -0.0720054 -0.0849949
-0.0506338 -0.0285453 -0.0388634
-0.0339262 0.0747379 -0.02069
-0.0169515 0.17816 0.0385932
-0.00210094 0.274732 0.106296
0.0282407 0.25415 0.138923
0.0521256 0.206632 0.163682
0.0760889 0.151976 0.184282
0.0746131 0.0962176 0.180877
0.0739117 0.0484334 0.159461
0.0692846 0.0159022 0.125272
0.0561071 0.00778232 0.0648948
0.0528779 -0.0230019 0.0247974
0.0453789 -0.0587065 -0.0458918
0.0378809 -0.0772936 -0.0994188
-0.062872 -0.0281154 -0.0642452
-0.0626827 -0.0522273 -0.0655752
-0.0606353 -0.0812161 -0.0548653
-0.0640779 -0.094709 -0.0424722
-0.0549656 -0.126312 -0.0504114
-0.0513508 -0.111053 -0.0431127
-0.0452662 -0.0668524 -0.027297
-0.0372363 -0.0232233 0.012729
-0.016506 0.080772 0.024241
0.00533896 0.180711 0.0796002
0.0265399 0.272392 0.146663
0.0615085 0.250878 0.176489
0.0898429 0.202432 0.198793
0.115539 0.144744 0.212585
0.11599 0.0868979 0.211683
0.112634 0.0368479 0.185302
0.102672 0.00246694 0.145325
0.0832359 -0.00696243 0.0789192
0.0731271 -0.0361289 0.0393404
0.0599218 -0.0668078 -0.0289459
0.0488943 -0.0809066 -0.0796957
-0.0345931 -0.0321614 -0.0347193
-0.0332065 -0.0556258 -0.0391319
-0.0316144 -0.0830332 -0.0299039
-0.0375959 -0.0943022 -0.0163736
-0.0302194 -0.12181 -0.018399
-0.0291535 -0.105207 -0.00692103
-0.0248781 -0.0610945 0.0101353
-0.0188983 -0.0181579 0.0470843
0.00342072 0.0836023 0.0607651
0.0265407 0.178186 0.116859
0.0500173 0.263631 0.185763
0.0830975 0.24288 0.208475
0.1105 0.19591 0.222997
0.133734 0.137665 0.2233
0.136166 0.0799772 0.220925
0.132012 0.028971 0.186696
0.120386 -0.00692982 0.139945
0.0999926 -0.0187193 0.0716712
0.0873448 -0.0466595 0.0330913
0.0725357 -0.0731906 -0.0267874
0.0604179 -0.0841146 -0.0680213
0.0294242 0.220702 0.115889
0.0313969 0.220874 0.109599
0.0323662 0.196821 0.081471
0.0289403 0.154928 0.0443877
0.0365129 0.103894 -0.040255
0.0385222 0.0572014 -0.0938274
0.043489 0.00402673 -0.128245
0.0587944 -0.0680147 -0.15399
0.0488842 -0.145146 -0.154479
0.0405745 -0.201828 -0.142052
0.0215074 -0.234674 -0.123969
0.0186012 -0.239561 -0.121259
0.00685041 -0.217419 -0.115291
-0.0140616 -0.166614 -0.0921506
-0.0402957 -0.140927 -0.0903929
-0.0703705 -0.122275 -0.089816
-0.09673 -0.111046 -0.0947861
-0.127125 -0.112714 -0.114677
-0.131238 -0.097089 -0.1212
-0.135262 -0.10713 -0.152442
-0.132815 -0.109926 -0.169055
0.0400888 0.237487 0.142916
0.0449308 0.236743 0.140378
0.050448 0.208507 0.112719
0.0508532 0.16309 0.0678084
0.0692449 0.105067 -0.0277101
0.0792624 0.0559805 -0.0958591
0.0914618 0.00161707 -0.143632
0.112287 -0.0732045 -0.173262
0.10469 -0.151463 -0.19028
0.0965809 -0.207223 -0.181239
0.0751543 -0.235837 -0.161771
0.0724208 -0.238924 -0.148355
0.0577058 -0.212789 -0.131159
0.030614 -0.154751 -0.0964296
-0.00386492 -0.126481 -0.0916314
-0.0448485 -0.107939 -0.0921988
-0.0823091 -0.0993857 -0.101089
-0.125713 -0.104523 -0.133932
-0.134162 -0.0948821 -0.144775
-0.142465 -0.112517 -0.185838
-0.141783 -0.120379 -0.208359
0.0544244 0.247498 0.157221
0.0626579 0.244048 0.154232
0.0736783 0.210685 0.126808
0.0788651 0.162596 0.0789105
0.108308 0.0976626 -0.0207208
0.126772 0.0473893 -0.0953366
0.145484 -0.00598697 -0.149197
0.170147 -0.0808716 -0.177953
0.166061 -0.15684 -0.20335
0.158597 -0.207937 -0.191137
0.136413 -0.228644 -0.1643
0.132582 -0.228371 -0.139885
0.11495 -0.197234 -0.113518
0.0822375 -0.131871 -0.0749608
0.0430505 -0.0996243 -0.0719982
-0.00464214 -0.0800337 -0.0811596
-0.0494097 -0.0742644 -0.102309
-0.101789 -0.0835583 -0.153503
-0.113633 -0.0826884 -0.171404
-0.126276 -0.111456 -0.220326
-0.128739 -0.127525 -0.244721
0.0628344 0.253667 0.139871
0.073907 0.24798 0.138021
0.0894747 0.210983 0.114214
0.0989251 0.158952 0.069602
0.13378 0.0893935 -0.0195741
0.156525 0.036606 -0.0891824
0.177712 -0.0175347 -0.140674
0.202122 -0.0911367 -0.166179
0.198111 -0.167251 -0.189414
0.189789 -0.215124 -0.174207
0.167525 -0.229423 -0.142941
0.161955 -0.221509 -0.11448
0.142786 -0.18146 -0.0859597
0.108115 -0.106066 -0.0489001
0.0686593 -0.0659492 -0.0532279
0.0195655 -0.0428611 -0.0717667
-0.0261493 -0.0373964 -0.104419
-0.0776389 -0.0504236 -0.164806
-0.0912061 -0.0573278 -0.190033
-0.104861 -0.0973182 -0.238289
-0.108838 -0.122744 -0.25752
0.0906586 0.244972 0.134406
0.105974 0.231573 0.119523
0.126072 0.185804 0.0932257
0.138149 0.132955 0.0535796
0.177029 0.0545029 -0.0258177
0.202506 0.00501518 -0.0830176
0.225177 -0.0406169 -0.121089
0.246621 -0.106507 -0.132246
0.248749 -0.165899 -0.143001
0.243821 -0.196472 -0.106659
0.227271 -0.191939 -0.0509306
0.221556 -0.182703 -0.0180623
0.203466 -0.141916 0.00780774
0.168125 -0.0640848 0.0268591
0.132814 -0.0221115 0.0140765
0.085788 0.00132193 -0.0305653
0.041739 0.00516837 -0.0911916
-0.00766181 -0.0098797 -0.178853
-0.0218425 -0.0283609 -0.216558
-0.0379224 -0.0845799 -0.268848
-0.0461854 -0.124159 -0.280104
0.0853847 0.235718 0.123542
0.0995952 0.216711 0.104131
0.117916 0.164956 0.081718
0.128779 0.109608 0.0490058
0.16106 0.0252524 -0.012027
0.181273 -0.0228718 -0.0527029
0.19783 -0.0626831 -0.075291
0.211272 -0.121557 -0.0779323
0.212418 -0.16905 -0.0708613
0.207694 -0.186684 -0.018537
0.1963 -0.168405 0.054876
0.191382 -0.156251 0.0853763
0.177601 -0.113384 0.105381
0.148925 -0.0324573 0.108506
0.123583 0.0132908 0.0903214
0.087574 0.0395107 0.0291002
0.0546283 0.0445189 -0.0491204
0.0203151 0.0287264 -0.15039
0.00907454 0.00264381 -0.195532
-0.00280682 -0.066158 -0.247051
-0.0100428 -0.117488 -0.251719
0.0700672 0.223238 0.113905
0.0806153 0.198917 0.0954533
0.0931626 0.142418 0.0790479
0.0999431 0.0854525 0.0512885
0.120875 -0.00320692 0.00794138
0.132033 -0.0488781 -0.0193964
0.139278 -0.0822184 -0.0312636
0.141678 -0.133756 -0.0308276
0.141014 -0.168397 -0.0105024
0.137064 -0.172961 0.0543008
0.133038 -0.142626 0.144979
0.130713 -0.130421 0.171544
0.123693 -0.088753 0.188887
0.105679 -0.00787288 0.184958
0.0943314 0.0401782 0.168771
0.0739159 0.0693375 0.100182
0.0566873 0.0773082 0.0133931
0.0429296 0.0634474 -0.0922275
0.0363693 0.0329136 -0.141266
0.03091 -0.0451943 -0.192659
0.0257441 -0.106632 -0.196313
0.0695571 0.211206 0.0891918
0.0780676 0.184761 0.072302
0.0863481 0.127267 0.0587276
0.0883993 0.0704249 0.0336399
0.100566 -0.0196054 -0.00348355
0.104576 -0.06418 -0.0265077
0.104505 -0.0947502 -0.0366791
0.0980228 -0.141897 -0.0405811
0.0995396 -0.172813 -0.0158427
0.098627 -0.17232 0.0514596
0.103473 -0.137936 0.147467
0.104397 -0.12674 0.18028
0.104227 -0.0866392 0.206605
0.0955337 -0.00558315 0.214182
0.0976763 0.0474406 0.209239
0.0909585 0.0840036 0.148947
0.0865826 0.0998129 0.0668868
0.087653 0.0923931 -0.0340378
0.0843793 0.0635308 -0.0826372
0.0814474 -0.0177491 -0.134432
0.0753064 -0.0847298 -0.142478
0.068078 0.196126 0.0531512
0.075228 0.165276 0.039851
0.0794755 0.103992 0.0310703
0.0768075 0.0480036 0.00851612
0.0779461 -0.0433398 -0.0273029
0.073185 -0.0812994 -0.0487624
0.0650728 -0.100838 -0.0608827
0.0508252 -0.138955 -0.0664132
0.0546893 -0.149771 -0.0427539
0.0580661 -0.133921 0.0360805
0.0728484 -0.0894035 0.152864
0.0756659 -0.0898838 0.177975
0.0810428 -0.0654064 0.203725
0.0814016 0.000532582 0.222802
0.0954442 0.0440085 0.229892
0.102832 0.0772397 0.182709
0.11226 0.0943239 0.111446
0.130987 0.0904537 0.0285571
0.130528 0.0616856 -0.0196881
0.130628 -0.0224863 -0.0731507
0.123457 -0.0923985 -0.088217
0.0394481 0.181451 0.01221
0.0426148 0.148378 -0.00328393
0.0417394 0.0862692 -0.0159536
0.0356745 0.0325275 -0.0392386
0.0268552 -0.0571105 -0.0829508
0.0154386 -0.0893561 -0.1059
0.00151886 -0.101073 -0.118796
-0.0170045 -0.132448 -0.123414
-0.0128614 -0.131481 -0.0941697
-0.00711684 -0.107383 -0.00549713
0.013422 -0.0596274 0.124337
0.0181833 -0.0708861 0.150452
0.0279618 -0.060397 0.180921
0.03685 -0.0080757 0.213257
0.0594314 0.0279366 0.230539
0.0792622 0.059298 0.198063
0.101417 0.0791312 0.139488
0.136124 0.079974 0.0715533
0.140292 0.0546591 0.0247954
0.145631 -0.0277276 -0.0311598
0.140419 -0.0963699 -0.0542911
-0.00294733 0.163158 -0.0355999
-0.003595 0.127907 -0.0590888
-0.00794478 0.0657441 -0.0809726
-0.014202 0.0154944 -0.105917
-0.0292286 -0.069995 -0.161548
-0.0436435 -0.094664 -0.184222
-0.0600968 -0.0970942 -0.191809
-0.0797017 -0.121165 -0.188214
-0.0769999 -0.107292 -0.144017
-0.0713712 -0.075026 -0.0404682
-0.0501935 -0.0248895 0.102977
-0.0459929 -0.0480977 0.130696
-0.0356128 -0.0536949 0.162467
-0.0215646 -0.0183256 0.200294
0.00452185 0.00619645 0.221255
0.0333255 0.0315777 0.196402
0.0662079 0.050844 0.146568
0.115259 0.0544499 0.0893146
0.125767 0.0328435 0.0427683
0.138115 -0.045646 -0.0160819
0.137252 -0.109827 -0.0452812
0.00594257 0.131733 -0.0741659
0.00909783 0.0954886 -0.103948
0.0102109 0.0359189 -0.133518
0.0105731 -0.00758346 -0.161758
0.00412862 -0.0871603 -0.225948
-0.00248828 -0.103057 -0.247008
-0.0120076 -0.0952008 -0.246714
-0.028344 -0.108026 -0.233396
-0.0233427 -0.0793122 -0.173078
-0.0195153 -0.0356136 -0.0604332
-0.00369607 0.0205764 0.0846122
-0.00643577 -0.00848834 0.117111
-0.00385674 -0.024941 0.150834
0.00204913 -0.00275936 0.191029
0.0232409 0.0127599 0.213032
0.0492222 0.032426 0.195109
0.0815438 0.0498018 0.153284
0.127049 0.0548479 0.103261
0.142181 0.0334359 0.0602442
0.154629 -0.0420309 -0.00187446
0.152863 -0.103164 -0.0384487
0.00693587 0.101182 -0.118489
0.0151619 0.0640762 -0.156762
0.0242575 0.00749693 -0.193471
0.0340128 -0.029005 -0.220987
0.0407017 -0.101792 -0.289393
0.0455018 -0.108646 -0.303733
0.0455685 -0.0897903 -0.28885
0.0349533 -0.0905725 -0.259681
0.0403357 -0.0452631 -0.180084
0.0401081 0.0110435 -0.0584024
0.0463333 0.074504 0.0853572
0.0358458 0.040899 0.118782
0.0288817 0.0139368 0.147835
0.024946 0.0216565 0.180259
0.0364691 0.0260516 0.195448
0.0558818 0.0368777 0.175565
0.0841067 0.0485746 0.136707
0.122131 0.0516978 0.0902253
0.141321 0.0286614 0.0483342
0.153689 -0.0438003 -0.0156302
0.151795 -0.100851 -0.0550268
-0.00876596 0.0598192 -0.173259
0.00304424 0.0227867 -0.22002
0.0201226 -0.0289632 -0.260331
0.0398116 -0.0562592 -0.280415
0.0619764 -0.119876 -0.344753
0.0792218 -0.115432 -0.349023
0.0892498 -0.0824714 -0.318922
0.0857179 -0.0663897 -0.269771
0.0865725 0.00297456 -0.178401
0.0788084 0.0773515 -0.0559953
0.0707574 0.152274 0.074566
0.054839 0.115918 0.104965
0.0394257 0.0779021 0.123035
0.0270627 0.06798 0.136636
0.0256837 0.0574552 0.141327
0.0351643 0.0551014 0.116755
0.0553949 0.0569635 0.0806709
0.0804117 0.0558866 0.0396537
0.102424 0.0278396 -0.0038439
0.114286 -0.0413878 -0.0651839
0.114177 -0.0936587 -0.101566
-0.0306406 0.0491825 -0.196799
-0.0168927 0.010477 -0.245548
0.00464129 -0.0403647 -0.284478
0.0287419 -0.0644829 -0.298198
0.0600992 -0.123374 -0.357823
0.0844266 -0.113243 -0.353941
0.101155 -0.0734496 -0.313965
0.103627 -0.0507438 -0.253171
0.106244 0.0302291 -0.156498
0.0981807 0.113046 -0.0337648
0.0858738 0.192455 0.0905357
0.0700682 0.153837 0.121859
0.0528392 0.108274 0.137223
0.0390628 0.0856494 0.146522
0.0315624 0.0623499 0.140838
0.0367477 0.0475844 0.111107
0.0524793 0.0395948 0.0713073
0.0705087 0.0322351 0.023095
0.0938736 0.00247449 -0.0218143
0.105402 -0.0639575 -0.0871809
0.105281 -0.110463 -0.125687
-0.0501436 0.0325325 -0.220996
-0.0361753 -0.00680279 -0.264253
-0.0130817 -0.055819 -0.295385
0.0121275 -0.0769112 -0.301222
0.0492668 -0.130357 -0.354231
0.077687 -0.114557 -0.346538
0.0988635 -0.0669385 -0.305082
0.107294 -0.0350701 -0.237478
0.110744 0.061427 -0.156251
0.104229 0.15506 -0.0468327
0.0904315 0.240959 0.060589
0.0820031 0.201703 0.0927086
0.0696822 0.148819 0.108023
0.060361 0.112315 0.119067
0.0482169 0.0751589 0.107836
0.0470328 0.0468858 0.0784026
0.0539896 0.0280353 0.0398411
0.0581703 0.0148287 -0.00781354
0.0768061 -0.0176581 -0.0527598
0.0834 -0.0799497 -0.11947
0.0809871 -0.119488 -0.160087
-0.0775351 0.0192439 -0.211321
-0.0674813 -0.0202939 -0.241697
-0.0481166 -0.0681889 -0.259149
-0.0274061 -0.0875298 -0.257635
0.00796555 -0.136404 -0.302603
0.0346855 -0.116974 -0.295688
0.0554403 -0.0638028 -0.259646
0.0673285 -0.0246741 -0.19459
0.0716073 0.084611 -0.139675
0.0694105 0.186237 -0.0494988
0.0595057 0.276476 0.0401553
0.0639512 0.237019 0.0743126
0.0626537 0.178513 0.0940588
0.0637507 0.130061 0.113011
0.0504776 0.0812439 0.104049
0.0460077 0.0415812 0.078584
0.0459961 0.0133359 0.0441509
0.0391686 -0.0048304 -0.0040171
0.0509491 -0.0391673 -0.0483357
0.0521406 -0.0961535 -0.119283
0.0481152 -0.128396 -0.16694
-0.127735 -0.00210937 -0.162134
-0.127063 -0.0394053 -0.173429
-0.117954 -0.0828078 -0.171365
-0.106342 -0.0977919 -0.1665
-0.0834109 -0.1374 -0.187711
-0.0664351 -0.112313 -0.182764
-0.0528874 -0.0524925 -0.159644
-0.0408455 -0.00604712 -0.104182
-0.0400019 0.115479 -0.0836112
-0.0383285 0.221096 -0.0179459
-0.0423265 0.310128 0.0538328
-0.0214629 0.266791 0.0898862
-0.00730154 0.198668 0.116771
0.011026 0.132949 0.143442
0.00108436 0.0704248 0.140923
-0.00114518 0.0178657 0.12175
-0.00338776 -0.0196108 0.0910234
-0.0135329 -0.0400597 0.0349824
-0.00799884 -0.0743785 -0.00456374
-0.00851347 -0.120728 -0.0765088
-0.0100695 -0.140693 -0.129831
-0.123126 -3.51093e-06 -0.118722
-0.124279 -0.038365 -0.122097
-0.119072 -0.0837068 -0.113399
-0.11507 -0.100296 -0.10374
-0.0982343 -0.141196 -0.122274
-0.0875086 -0.117937 -0.118116
-0.0778466 -0.0592269 -0.0998958
-0.0659586 -0.0129444 -0.0497172
-0.0594495 0.110408 -0.0383884
-0.0498582 0.2179 0.0210458
-0.0444143 0.309433 0.0898479
-0.0121305 0.271145 0.12453
0.0123485 0.207042 0.151476
0.038462 0.142317 0.176194
0.031802 0.0788366 0.174804
0.0277453 0.0245405 0.154952
0.0194929 -0.0153885 0.121699
0.000521495 -0.0380521 0.0593964
-0.00251889 -0.072731 0.0180863
-0.00967736 -0.118406 -0.0593306
-0.0146551 -0.138128 -0.11894
-0.0876573 -0.00730504 -0.076622
-0.0865779 -0.0441392 -0.0774395
-0.0816955 -0.0872598 -0.0649317
-0.0826992 -0.102124 -0.0524671
-0.0693892 -0.138949 -0.0619321
-0.0638556 -0.115061 -0.0552245
-0.0579925 -0.0564197 -0.0391442
-0.0475535 -0.00946106 0.00541499
-0.0363081 0.113956 0.0112103
-0.020427 0.218844 0.0677527
-0.00669773 0.307115 0.136879
0.0319457 0.270427 0.168577
0.0624753 0.207214 0.192265
0.0913286 0.139713 0.208673
0.0872871 0.0739971 0.208138
0.0803369 0.0167709 0.181598
0.0656631 -0.0256924 0.140952
0.0381599 -0.0493412 0.0717334
0.0268251 -0.0830028 0.0306229
0.0117083 -0.123353 -0.0437087
0.00136941 -0.138885 -0.0996646
-0.0494141 -0.0136461 -0.0471558
-0.0461096 -0.0483461 -0.0517225
-0.0413728 -0.0883572 -0.0410935
-0.0453112 -0.100874 -0.0271588
-0.0343014 -0.133224 -0.0295587
-0.0320072 -0.109143 -0.0173524
-0.028457 -0.0522371 0.00127235
-0.0204257 -0.00616624 0.0431529
-0.00702322 0.113441 0.0533569
0.0109936 0.212948 0.112065
0.0281983 0.295915 0.18426
0.0654935 0.262323 0.208032
0.095612 0.202638 0.222528
0.122091 0.135435 0.222851
0.120559 0.0702201 0.21936
0.112607 0.0120568 0.182792
0.0957329 -0.0318707 0.13371
0.0658034 -0.0567444 0.0622892
0.0511934 -0.0892432 0.0220145
0.0328434 -0.124668 -0.0423973
0.0197564 -0.137222 -0.0869991
0.00384023 0.181686 0.124397
0.00477611 0.169121 0.118868
0.00664683 0.135596 0.0897601
0.00514962 0.0936508 0.0515994
0.0140015 0.0456606 -0.0380149
0.0149906 0.0083863 -0.0950372
0.0162298 -0.0353533 -0.132203
0.0282359 -0.105141 -0.158278
0.0071831 -0.180492 -0.163986
-0.0100468 -0.243528 -0.152876
-0.0372927 -0.287032 -0.135721
-0.0386114 -0.302584 -0.129894
-0.047465 -0.284765 -0.12201
-0.0635271 -0.226464 -0.0974053
-0.0879049 -0.19984 -0.0945432
-0.11675 -0.171618 -0.0933839
-0.14398 -0.149892 -0.0967098
-0.174934 -0.14178 -0.113778
-0.179427 -0.118081 -0.119209
-0.181487 -0.123648 -0.15345
-0.175286 -0.12185 -0.173916
0.00687095 0.199294 0.153116
0.0104354 0.183756 0.152214
0.0167929 0.143972 0.124
0.0192456 0.0976511 0.0772631
0.0379991 0.0419916 -0.0245539
0.0458162 0.00288492 -0.0981814
0.052569 -0.0411759 -0.151007
0.0692115 -0.113609 -0.182206
0.0471397 -0.190263 -0.207325
0.0282795 -0.253358 -0.200395
-0.00262575 -0.293844 -0.181716
-0.00255657 -0.308499 -0.162903
-0.0127971 -0.286615 -0.141147
-0.0327419 -0.219791 -0.101334
-0.0650057 -0.189332 -0.0942618
-0.104514 -0.160312 -0.0933941
-0.143534 -0.140755 -0.10045
-0.188555 -0.137029 -0.131632
-0.198488 -0.119194 -0.141758
-0.205448 -0.133475 -0.187238
-0.200632 -0.137224 -0.214734
0.0165462 0.212252 0.167128
0.023339 0.192466 0.166245
0.0350259 0.145676 0.13898
0.0418656 0.0956265 0.0890704
0.0705898 0.0320899 -0.0170993
0.0855843 -0.00811352 -0.0981694
0.0973567 -0.0506356 -0.15863
0.117396 -0.123127 -0.190264
0.0964725 -0.197808 -0.226156
0.0773262 -0.257222 -0.216661
0.0452781 -0.290893 -0.189994
0.0459274 -0.302798 -0.157761
0.0346204 -0.27563 -0.123987
0.0112376 -0.200083 -0.0771772
-0.0253956 -0.164361 -0.0708326
-0.0716038 -0.133538 -0.0786389
-0.119064 -0.116855 -0.0988698
-0.174886 -0.119038 -0.150361
-0.189832 -0.110857 -0.168411
-0.20263 -0.138109 -0.22234
-0.201311 -0.150874 -0.251687
0.0265034 0.220707 0.144723
0.0360951 0.198077 0.144644
0.0520209 0.146485 0.121827
0.062386 0.0912467 0.0760506
0.0960473 0.0223134 -0.0180108
0.114714 -0.0208194 -0.0930517
0.128618 -0.0641755 -0.150627
0.148329 -0.135473 -0.179215
0.128197 -0.21037 -0.21268
0.109211 -0.266705 -0.199807
0.0785089 -0.293891 -0.167606
0.0787666 -0.298099 -0.130445
0.0672812 -0.261593 -0.0933212
0.0427287 -0.174888 -0.0470685
0.0061847 -0.130274 -0.0478369
-0.0419082 -0.0958579 -0.0657067
-0.0915902 -0.0798579 -0.0987724
-0.148212 -0.0867935 -0.160792
-0.166728 -0.0877503 -0.186709
-0.182211 -0.127602 -0.238954
-0.183352 -0.150184 -0.26188
0.0569878 0.218569 0.132895
0.0715073 0.187653 0.118835
0.0922605 0.1263 0.0942963
0.10473 0.0704857 0.054814
0.142218 -0.00747279 -0.0272382
0.162793 -0.0467759 -0.0880652
0.177237 -0.0813386 -0.131287
0.194272 -0.145788 -0.145636
0.178519 -0.205306 -0.168118