# vtk DataFile Version 2.0
Func
ASCII
DATASET RECTILINEAR_GRID
DIMENSIONS 21 21 21
X_COORDINATES 21 double
-4.7619
-4.28571
-3.80952
-3.33333
-2.85714
-2.38095
-1.90476
-1.42857
-0.952381
-0.47619
0
0.47619
0.952381
1.42857
1.90476
2.38095
2.85714
3.33333
3.80952
4.28571
4.7619
Y_COORDINATES 21 double
-4.7619
-4.28571
-3.80952
-3.33333
-2.85714
-2.38095
-1.90476
-1.42857
-0.952381
-0.47619
0
0.47619
0.952381
1.42857
1.90476
2.38095
2.85714
3.33333
3.80952
4.28571
4.7619
Z_COORDINATES 21 double
-4.7619
-4.28571
-3.80952
-3.33333
-2.85714
-2.38095
-1.90476
-1.42857
-0.952381
-0.47619
0
0.47619
0.952381
1.42857
1.90476
2.38095
2.85714
3.33333
3.80952
4.28571
4.7619
POINT_DATA 9261
SCALARS data double 3
LOOKUP_TABLE default
-0.0411022 0.0752369 0.0990539
-0.0592775 0.0800757 0.113411
-0.0752754 0.061785 0.102062
-0.0836826 0.0194346 0.0624504
-0.0817257 -0.0405679 0.00275412
-0.0691726 -0.0985838 -0.0594608
-0.0515036 -0.132728 -0.103527
-0.0351144 -0.125911 -0.116646
-0.0282218 -0.0740657 -0.0961637
-0.0362195 0.0126256 -0.0480835
-0.0606186 0.109951 0.0103047
-0.0988148 0.190282 0.0618521
-0.143779 0.232844 0.0959155
-0.187084 0.231641 0.112827
-0.222982 0.196169 0.118921
-0.248315 0.145279 0.126072
-0.259264 0.0998767 0.142201
-0.25475 0.0704909 0.161751
-0.236796 0.0553775 0.174286
-0.209739 0.0476815 0.172907
-0.177844 0.0399649 0.150758
-0.0194468 0.0698121 0.144722
-0.0347562 0.0744793 0.160991
-0.0490855 0.0558549 0.142206
-0.0565479 0.0129262 0.0863105
-0.0544922 -0.0477337 0.00511996
-0.0430142 -0.106082 -0.0801447
-0.0277054 -0.139257 -0.141717
-0.014592 -0.127703 -0.16345
-0.0112373 -0.0658341 -0.14289
-0.0223577 0.0358389 -0.0876183
-0.0483694 0.150167 -0.0190412
-0.086091 0.245607 0.0416056
-0.128093 0.29794 0.0812495
-0.16688 0.299947 0.10011
-0.198216 0.261567 0.106127
-0.220657 0.204118 0.113899
-0.231204 0.151609 0.133542
-0.228771 0.114656 0.158386
-0.215117 0.0912573 0.177165
-0.193521 0.0744454 0.18106
-0.16706 0.0582664 0.161033
0.0160401 0.0480238 0.188482
0.00692314 0.0517893 0.20389
-0.00350283 0.0363195 0.175636
-0.00953505 -0.000377063 0.103521
-0.00882917 -0.053068 0.00323247
-0.00214984 -0.103754 -0.102746
0.00619082 -0.130933 -0.180159
0.0117199 -0.114053 -0.210519
0.00947159 -0.0458507 -0.19147
-0.00331615 0.0640516 -0.132532
-0.0257628 0.188096 -0.0582502
-0.054282 0.293097 0.00695957
-0.0828337 0.352941 0.0481351
-0.105873 0.35968 0.065404
-0.122406 0.322849 0.0677645
-0.134794 0.264618 0.0723494
-0.140962 0.210395 0.0915165
-0.140439 0.169322 0.119211
-0.134453 0.139291 0.143139
-0.124592 0.113285 0.154044
-0.11146 0.0865899 0.141472
0.052953 0.0114696 0.216699
0.0503122 0.0144147 0.2282
0.0434653 0.00641031 0.190081
0.0371532 -0.0164255 0.104906
0.0334908 -0.0520072 -0.0087382
0.0316636 -0.0873711 -0.128208
0.0293149 -0.104891 -0.215113
0.0245126 -0.0841902 -0.249823
0.0158208 -0.016167 -0.230494
0.00263166 0.0919226 -0.168763
-0.0126752 0.214902 -0.0915239
-0.0263761 0.320739 -0.0254991
-0.0345706 0.383516 0.0130454
-0.0347965 0.395513 0.0244272
-0.0292685 0.364901 0.0183145
-0.0244717 0.313729 0.0143647
-0.0208415 0.266685 0.0274971
-0.019045 0.229215 0.0548019
-0.0199142 0.198483 0.0818228
-0.0233613 0.165669 0.0998739
-0.0272613 0.127761 0.0982643
0.0748005 -0.0361211 0.218081
0.0753803 -0.0329215 0.222149
0.0690641 -0.0289793 0.175405
0.0590355 -0.0311698 0.082617
0.0474042 -0.0423523 -0.0349327
0.0334721 -0.0566892 -0.155944
0.0177133 -0.0628709 -0.241461
0.000844207 -0.0416968 -0.272456
-0.0152203 0.0181587 -0.248361
-0.028549 0.11308 -0.18288
-0.0354723 0.223007 -0.10423
-0.0324148 0.319834 -0.0402085
-0.0177557 0.380006 -0.00762382
0.00777902 0.3971 -0.00590555
0.0386374 0.37728 -0.0244992
0.0656533 0.341707 -0.0423197
0.0852441 0.311884 -0.0416107
0.0944465 0.287816 -0.0210041
0.0920949 0.264165 0.00574217
0.079275 0.229581 0.0295309
0.0610069 0.181667 0.0399423
0.069001 -0.0891242 0.181178
0.0680235 -0.0842106 0.173265
0.0585079 -0.0647578 0.11986
0.0420473 -0.0415681 0.0277758
0.0204062 -0.0237278 -0.0807202
-0.00664363 -0.0142269 -0.186951
-0.0362454 -0.00947966 -0.256441
-0.0655018 0.00777081 -0.27335
-0.0894073 0.0514307 -0.239246
-0.103531 0.122678 -0.169571
-0.103233 0.208833 -0.092009
-0.0852728 0.288005 -0.0332483
-0.0499684 0.340746 -0.00917987
-0.000671618 0.362691 -0.0191592
0.0544158 0.357864 -0.0515313
0.104131 0.345105 -0.0854594
0.142072 0.341301 -0.101835
0.163444 0.339025 -0.0943202
0.165737 0.330415 -0.0732046
0.150731 0.300135 -0.046192
0.12541 0.245444 -0.0235902
0.0308861 -0.139067 0.109695
0.0238305 -0.13077 0.0860846
0.00838454 -0.0939922 0.028028
-0.0152311 -0.0439709 -0.0563202
-0.0458606 0.00316587 -0.144776
-0.0836036 0.0355125 -0.222489
-0.124332 0.0485987 -0.263332
-0.163908 0.0574891 -0.256867
-0.19509 0.0787509 -0.207818
-0.211588 0.119127 -0.133
-0.20828 0.174553 -0.0581857
-0.182372 0.23057 -0.00711707
-0.135236 0.272766 0.0066681
-0.0716375 0.299184 -0.015769
-0.00085294 0.312096 -0.0618053
0.0657486 0.32669 -0.11176
0.119899 0.354419 -0.146382
0.155663 0.379909 -0.15516
0.168913 0.392249 -0.143032
0.161335 0.37169 -0.115575
0.140098 0.313713 -0.0831328
-0.0270883 -0.178391 0.0179189
-0.0422872 -0.165278 -0.0231519
-0.0635113 -0.111812 -0.0843629
-0.0916341 -0.0372644 -0.156546
-0.126214 0.0352902 -0.21923
-0.167646 0.0860276 -0.261389
-0.21194 0.103208 -0.267697
-0.254852 0.0996877 -0.23453
-0.288869 0.0951986 -0.17033
-0.307094 0.102087 -0.0927553
-0.304785 0.124987 -0.0244035
-0.279807 0.156883 0.0155463
-0.233581 0.188351 0.0171333
-0.170612 0.219598 -0.0177389
-0.0989534 0.251235 -0.0758886
-0.0277288 0.295053 -0.139721
0.0344345 0.356005 -0.190903
0.0816563 0.411317 -0.214985
0.108456 0.446842 -0.211729
0.115414 0.438884 -0.184238
0.107723 0.380508 -0.142233
-0.085803 -0.199451 -0.0754066
-0.107407 -0.180486 -0.133005
-0.130728 -0.113307 -0.196375
-0.157134 -0.0203236 -0.25554
-0.18698 0.0698052 -0.292299
-0.221361 0.130971 -0.299444
-0.257554 0.145971 -0.273014
-0.292982 0.126623 -0.216543
-0.321903 0.0959887 -0.141936
-0.338625 0.0715639 -0.0670301
-0.339869 0.065579 -0.0101456
-0.324379 0.0771768 0.0152416
-0.292739 0.100785 0.00353635
-0.247459 0.137793 -0.0422272
-0.192903 0.187157 -0.108977
-0.133707 0.257434 -0.182316
-0.0768865 0.348143 -0.245889
-0.0270248 0.430506 -0.281109
0.00979666 0.486871 -0.283339
0.0324177 0.490816 -0.254151
0.0424555 0.433415 -0.20181
-0.128713 -0.198186 -0.151053
-0.152245 -0.172946 -0.221914
-0.171819 -0.0967979 -0.286888
-0.18873 0.0062766 -0.33489
-0.203956 0.103393 -0.350302
-0.219621 0.164727 -0.329538
-0.235251 0.170395 -0.278385
-0.251276 0.132747 -0.206915
-0.265614 0.0782812 -0.129815
-0.275731 0.0289018 -0.0642754
-0.280957 0.00251725 -0.0234014
-0.28123 0.00221203 -0.0142396
-0.275792 0.0241578 -0.037626
-0.263802 0.0691149 -0.0893334
-0.243845 0.133974 -0.157674
-0.214315 0.224253 -0.232682
-0.178695 0.335673 -0.301352
-0.138911 0.436202 -0.342001
-0.100477 0.505784 -0.346473
-0.0665063 0.51751 -0.314913
-0.0394596 0.461507 -0.253332
-0.145083 -0.175662 -0.19541
-0.16496 -0.144591 -0.273557
-0.175036 -0.0649242 -0.338684
-0.175868 0.0387409 -0.378468
-0.168689 0.131065 -0.379817
-0.156659 0.181521 -0.341969
-0.141957 0.170787 -0.277417
-0.128698 0.113702 -0.201295
-0.1198 0.0402756 -0.130138
-0.117457 -0.0241667 -0.0796
-0.124517 -0.0585776 -0.0571541
-0.142505 -0.0588484 -0.0633518
-0.169337 -0.0298249 -0.0944171
-0.20027 0.0263377 -0.145127
-0.227104 0.103787 -0.206393
-0.241086 0.20532 -0.273619
-0.240758 0.325096 -0.338466
-0.224285 0.43119 -0.378078
-0.195362 0.503022 -0.382181
-0.15859 0.515931 -0.349715
-0.120088 0.460374 -0.283555
-0.134859 -0.137064 -0.202633
-0.147068 -0.101123 -0.280128
-0.144535 -0.0234087 -0.342386
-0.126665 0.0715692 -0.376086
-0.0944976 0.147819 -0.370403
-0.0518347 0.17709 -0.326189
-0.00329828 0.143912 -0.259154
0.0434932 0.0676091 -0.187663
0.0802035 -0.0181917 -0.129139
0.0992676 -0.0858168 -0.0968183
0.0939493 -0.113858 -0.0926052
0.0608441 -0.100388 -0.110905
0.00291049 -0.0543012 -0.143753
-0.0715595 0.0169261 -0.185339
-0.148065 0.103899 -0.230166
-0.211082 0.207102 -0.279562
-0.253698 0.321613 -0.33114
-0.269736 0.419083 -0.364058
-0.26017 0.480878 -0.367126
-0.230034 0.487222 -0.338101
-0.187689 0.430406 -0.276208
-0.10539 -0.0904366 -0.174152
-0.10895 -0.05132 -0.242112
-0.0947476 0.0196181 -0.296739
-0.0610196 0.0983837 -0.32443
-0.00822498 0.15002 -0.316379
0.0599164 0.150887 -0.273739
0.137159 0.0919978 -0.212395
0.213501 -0.00151901 -0.152265
0.276004 -0.0925508 -0.110803
0.312326 -0.152142 -0.0979954
0.312291 -0.160948 -0.110576
0.270602 -0.121845 -0.137305
0.190352 -0.0501977 -0.1664
0.082102 0.0393267 -0.19177
-0.0353873 0.133135 -0.212055
-0.141596 0.229651 -0.234639
-0.224877 0.326886 -0.264199
-0.274935 0.40297 -0.285919
-0.289786 0.443738 -0.288661
-0.273525 0.436391 -0.268957
-0.234692 0.376408 -0.222378
-0.0658136 -0.0447369 -0.115497
-0.0625069 -0.00462833 -0.16541
-0.0411415 0.0559 -0.206675
0.000785494 0.11365 -0.226315
0.0635445 0.13599 -0.217632
0.144298 0.105295 -0.18141
0.236482 0.0206178 -0.131367
0.329652 -0.0866634 -0.0875697
0.408309 -0.176308 -0.0667703
0.457294 -0.218998 -0.0748928
0.464435 -0.199235 -0.104001
0.423032 -0.126422 -0.137724
0.335492 -0.0238709 -0.160661
0.212658 0.0855596 -0.166427
0.0742317 0.183775 -0.157687
-0.0573394 0.267373 -0.147542
-0.167763 0.338537 -0.148351
-0.243995 0.383983 -0.155023
-0.281609 0.396073 -0.157521
-0.282497 0.370139 -0.151355
-0.253367 0.306089 -0.12895
-0.0240034 -0.0081778 -0.0381017
-0.0169816 0.0305669 -0.0642972
0.00546635 0.078816 -0.0880123
0.0458208 0.114039 -0.0979467
0.105072 0.106798 -0.0888886
0.181773 0.0455881 -0.0606013
0.270451 -0.0622072 -0.0238995
0.362422 -0.179181 0.00166209
0.442387 -0.262416 0.000262698
0.495115 -0.282843 -0.0298707
0.50857 -0.229799 -0.0767401
0.475664 -0.119976 -0.119233
0.397566 0.0148877 -0.138214
0.283324 0.14368 -0.126388
0.150013 0.243967 -0.0896383
0.0182274 0.310952 -0.0459304
-0.0981686 0.351813 -0.0151443
-0.185544 0.362637 -0.00406854
-0.238141 0.343269 -0.00515588
-0.254986 0.297589 -0.0132945
-0.239089 0.230152 -0.0183918
0.0157491 0.0140159 0.0457027
0.0240912 0.0495651 0.0454686
0.0426384 0.0852205 0.0411344
0.0729673 0.0991845 0.0420558
0.116099 0.0658309 0.0518873
0.17224 -0.0209866 0.0719851
0.238203 -0.14618 0.0947182
0.30918 -0.267874 0.10109
0.373238 -0.341118 0.0760209
0.418142 -0.337581 0.0215218
0.434449 -0.251635 -0.0469809
0.416031 -0.106902 -0.103932
0.362513 0.0571751 -0.126114
0.279374 0.202237 -0.104192
0.177959 0.302172 -0.0459332
0.0730801 0.351776 0.0272706
-0.024845 0.362172 0.0889754
-0.104525 0.339169 0.12042
-0.160377 0.290475 0.124876
-0.188572 0.227275 0.107275
-0.187408 0.158532 0.0791969
0.0523728 0.0230941 0.125429
0.0602804 0.0543065 0.149866
0.0715359 0.0786295 0.164056
0.0860751 0.0747613 0.175359
0.10458 0.0212551 0.186071
0.128579 -0.0839835 0.197452
0.158009 -0.219828 0.205219
0.193074 -0.34157 0.191102
0.227613 -0.403693 0.140656
0.254733 -0.378857 0.0590057
0.269578 -0.265986 -0.035645
0.268278 -0.0942304 -0.113856
0.24898 0.091138 -0.148298
0.212582 0.246495 -0.126608
0.162812 0.343578 -0.0569524
0.106177 0.376692 0.0375118
0.0470113 0.360196 0.125613
-0.00823898 0.308886 0.178918
-0.0555075 0.237589 0.194888
-0.0889191 0.162928 0.176921
-0.101989 0.0962084 0.137375
0.0804608 0.0222456 0.183976
0.0879009 0.0487416 0.225775
0.0924094 0.0640369 0.252966
0.0920249 0.0473678 0.271755
0.0864774 -0.0187197 0.282432
0.0773774 -0.133395 0.28545
0.0673382 -0.272093 0.279079
0.0617083 -0.389521 0.24686
0.0607393 -0.441284 0.175733
0.064066 -0.401472 0.072333
0.0725678 -0.272489 -0.0437352
0.0856112 -0.0866418 -0.141309
0.100416 0.10795 -0.190752
0.113368 0.265297 -0.177048
0.12056 0.35659 -0.107529
0.119715 0.376125 -0.00499278
0.10785 0.340167 0.0979996
0.0851656 0.270488 0.168416
0.0537358 0.186785 0.1975
0.0203642 0.108844 0.186499
-0.00470804 0.0480932 0.147635
0.0948145 0.0155449 0.210198
0.102818 0.0371554 0.259805
0.104093 0.0459071 0.292597
0.0947646 0.0220454 0.313431
0.0726977 -0.0484142 0.323466
0.0388709 -0.163307 0.321121
-0.00271364 -0.29703 0.306128
-0.0437126 -0.406149 0.263212
-0.0776435 -0.448927 0.18085
-0.0987855 -0.401484 0.0654372
-0.100567 -0.268478 -0.0637446
-0.0799022 -0.0828115 -0.175689
-0.0395514 0.10774 -0.239979
0.0136063 0.257925 -0.239317
0.0698723 0.339987 -0.179159
0.118488 0.348994 -0.0800622
0.149835 0.301921 0.0268911
0.1586 0.22454 0.10839
0.144807 0.139193 0.150003
0.115228 0.0659146 0.150721
0.0819152 0.0148648 0.121706
0.0953072 0.00684695 0.201656
0.104538 0.0237555 0.249332
0.106137 0.0282422 0.280544
0.0942623 0.00237444 0.299244
0.0650327 -0.0653109 0.307033
0.0183043 -0.172066 0.302677
-0.0420167 -0.293687 0.285576
-0.106165 -0.390848 0.241669
-0.163734 -0.425969 0.160343
-0.204162 -0.377895 0.0468228
-0.21662 -0.252275 -0.0818298
-0.194853 -0.080074 -0.196995
-0.140959 0.0944171 -0.269617
-0.0632089 0.229587 -0.281519
0.0246199 0.300286 -0.235797
0.106029 0.30246 -0.149374
0.167287 0.252688 -0.0498753
0.199055 0.177673 0.0327528
0.199907 0.0997377 0.0814091
0.176083 0.03674 0.0933586
0.13963 -0.00329366 0.0776287
0.0820689 0.00148589 0.163514
0.0928424 0.0134186 0.20153
0.0971387 0.0147645 0.226054
0.0881438 -0.0104275 0.240061
0.0607449 -0.0709783 0.245285
0.0141051 -0.163776 0.241955
-0.0486768 -0.267638 0.228408
-0.118268 -0.349058 0.192394
-0.183642 -0.376306 0.124343
-0.232451 -0.331829 0.0276569
-0.252186 -0.22143 -0.0843945
-0.235274 -0.0722941 -0.188016
-0.182454 0.0771757 -0.258178
-0.102002 0.191284 -0.277993
-0.00798743 0.248872 -0.248052
0.08202 0.246842 -0.181364
0.153222 0.199887 -0.0997353
0.195047 0.13334 -0.0271357
0.2052 0.0683149 0.0203971
0.18872 0.0189571 0.0390686
0.155794 -0.00986527 0.0354347
-0.0407812 0.10478 0.100258
-0.0579183 0.113326 0.11175
-0.072445 0.0938567 0.0950246
-0.0787735 0.0440177 0.0490844
-0.0749285 -0.0290342 -0.0151643
-0.0615074 -0.103874 -0.0779443
-0.0452002 -0.153505 -0.117402
-0.0331136 -0.156333 -0.121589
-0.0334553 -0.105802 -0.0900084
-0.0507774 -0.0127072 -0.0311023
-0.08524 0.0952178 0.0344917
-0.132873 0.185548 0.0880219
-0.184902 0.233751 0.119116
-0.232271 0.233011 0.130147
-0.26942 0.194361 0.12959
-0.293851 0.140415 0.131806
-0.301966 0.0956659 0.146126
-0.292792 0.0701818 0.165805
-0.268906 0.0611139 0.178874
-0.235728 0.0585778 0.177385
-0.19855 0.0533168 0.153879
-0.00860729 0.105183 0.15127
-0.0178756 0.115678 0.164381
-0.0253526 0.0969877 0.137462
-0.0261205 0.0461819 0.0707593
-0.0196413 -0.0294913 -0.0200783
-0.00699871 -0.107712 -0.109997
0.00485637 -0.159762 -0.168602
0.00959418 -0.160246 -0.18036
0.000390472 -0.100132 -0.145593
-0.0252564 0.00964984 -0.0753834
-0.0653881 0.137734 0.00392431
-0.114934 0.246576 0.0681753
-0.164604 0.30715 0.103999
-0.206927 0.311148 0.113925
-0.238676 0.270078 0.109138
-0.259528 0.209939 0.108187
-0.266954 0.15906 0.123601
-0.260053 0.126846 0.148035
-0.240978 0.109715 0.16881
-0.213991 0.0973983 0.1753
-0.182807 0.0815148 0.1571
0.042548 0.0867662 0.20116
0.0457825 0.0991554 0.21352
0.0484309 0.0861347 0.174602
0.053849 0.0429647 0.0871548
0.0612211 -0.0250453 -0.0284196
0.0687061 -0.0971977 -0.144085
0.0706817 -0.145721 -0.221394
0.0631028 -0.143088 -0.242063
0.0427698 -0.0775964 -0.206958
0.0106683 0.0412618 -0.130094
-0.0291887 0.181302 -0.0423576
-0.0707702 0.302441 0.0276154
-0.106508 0.372923 0.0639039
-0.131277 0.383428 0.0690739
-0.146279 0.345159 0.056501
-0.155571 0.285484 0.048431
-0.158117 0.234856 0.0608359
-0.153746 0.200059 0.0879139
-0.144121 0.176861 0.116476
-0.131465 0.154358 0.134379
-0.116217 0.124709 0.128893
0.0955686 0.0497474 0.235503
0.111085 0.0646047 0.244126
0.122663 0.0630356 0.193216
0.131457 0.0374187 0.0888744
0.135563 -0.0112858 -0.0450237
0.133127 -0.0674189 -0.178934
0.120879 -0.107443 -0.26881
0.0979521 -0.103016 -0.294824
0.0659203 -0.0397258 -0.258744
0.0291253 0.0762011 -0.177376
-0.00618632 0.215109 -0.0850278
-0.0333443 0.337803 -0.0137054
-0.0473695 0.412382 0.0187693
-0.0466932 0.429652 0.0152994
-0.0365411 0.399385 -0.00944947
-0.0258793 0.349457 -0.0295476
-0.0170024 0.309577 -0.0255158
-0.0111751 0.281236 0.00122902
-0.00995454 0.258771 0.03574
-0.0134483 0.228844 0.0654557
-0.0185434 0.184372 0.0764893
0.129176 -0.0029946 0.241414
0.151178 0.015646 0.24261
0.165916 0.0313452 0.181842
0.172005 0.0323648 0.0676829
0.167205 0.0130595 -0.0730213
0.149956 -0.0186686 -0.211425
0.120353 -0.0467422 -0.302039
0.0810183 -0.0435703 -0.325471
0.0374884 0.00846669 -0.284966
-0.00235932 0.107836 -0.199685
-0.0305313 0.230747 -0.105733
-0.0402138 0.34239 -0.0366929
-0.029166 0.413484 -0.0112513
0.00066317 0.436289 -0.026214
0.0399969 0.418616 -0.0656379
0.076881 0.387785 -0.101786
0.104742 0.37 -0.111646
0.119538 0.359191 -0.0914266
0.118978 0.346575 -0.0547483
0.104181 0.315306 -0.0156972
0.0819392 0.258144 0.0116266
0.127619 -0.06546 0.205895
0.148349 -0.0416417 0.19492
0.159446 -0.0041403 0.127317
0.157444 0.0300998 0.013719
0.139911 0.047146 -0.118133
0.105972 0.0449885 -0.241926
0.0587605 0.030156 -0.31674
0.00365323 0.0282988 -0.326373
-0.0502224 0.0605146 -0.276188
-0.0919058 0.131167 -0.187122
-0.112258 0.224998 -0.0947005
-0.104838 0.314392 -0.031401
-0.0698237 0.374887 -0.0150735
-0.0120981 0.401206 -0.0427244
0.0559092 0.3993 -0.0969381
0.119913 0.394501 -0.150465
0.169699 0.407835 -0.178932
0.199052 0.423714 -0.17279
0.203824 0.430161 -0.141387
0.186082 0.405108 -0.0976658
0.155158 0.34002 -0.0558547
0.0838311 -0.128382 0.131392
0.0956023 -0.0983551 0.103699
0.0971903 -0.0369064 0.0319081
0.0840548 0.0329837 -0.0722158
0.0535977 0.0882044 -0.181203
0.00522479 0.116378 -0.273298
-0.0560579 0.113652 -0.316905
-0.123506 0.103179 -0.301573
-0.185304 0.109271 -0.235894
-0.228637 0.142975 -0.14206
-0.24399 0.199043 -0.0532092
-0.225745 0.258609 0.00166611
-0.175494 0.303293 0.00736002
-0.0998019 0.330813 -0.0329975
-0.01228 0.346147 -0.101055
0.072348 0.37084 -0.171111
0.141687 0.420283 -0.21919
0.188154 0.46897 -0.231588
0.205704 0.501429 -0.21132
0.196444 0.489677 -0.168625
0.17015 0.422105 -0.117494
0.0135961 -0.183208 0.0323891
0.0121172 -0.146608 -0.0146631
0.00235304 -0.0625261 -0.0889864
-0.0205643 0.0406805 -0.177981
-0.0589711 0.130652 -0.256207
-0.113752 0.185621 -0.307137
-0.17973 0.191942 -0.311639
-0.250038 0.169739 -0.266828
-0.312634 0.146972 -0.185099
-0.354711 0.141165 -0.0892793
-0.367623 0.157164 -0.0084
-0.347118 0.18492 0.0341712
-0.295099 0.212153 0.0274634
-0.218044 0.239434 -0.0247396
-0.127966 0.271138 -0.103941
-0.0372152 0.325546 -0.18749
0.0416276 0.411148 -0.252956
0.101231 0.493958 -0.283199
0.134184 0.554985 -0.275809
0.141613 0.560901 -0.236878
0.131049 0.49581 -0.178858
-0.0593406 -0.220611 -0.0712419
-0.0731636 -0.177829 -0.137549
-0.0910657 -0.0755118 -0.213632
-0.117211 0.0536214 -0.28633
-0.153608 0.169972 -0.332836
-0.201793 0.243709 -0.342203
-0.257656 0.253131 -0.308806
-0.316466 0.216418 -0.237837
-0.368559 0.165173 -0.145244
-0.403614 0.122669 -0.0537227
-0.415389 0.10263 0.0133209
-0.401458 0.102413 0.0397146
-0.363016 0.114613 0.0197845
-0.304508 0.141629 -0.0416441
-0.233322 0.187294 -0.127028
-0.156761 0.266871 -0.218395
-0.0849926 0.383416 -0.296293
-0.0235412 0.496407 -0.339811
0.0200185 0.583355 -0.342397
0.0451216 0.606839 -0.306796
0.0550805 0.547359 -0.242392
-0.114874 -0.233934 -0.158357
-0.135907 -0.185852 -0.241181
-0.15512 -0.072057 -0.319117
-0.175219 0.0724748 -0.377985
-0.197656 0.202736 -0.397932
-0.224895 0.283492 -0.37346
-0.25503 0.288162 -0.310801
-0.287062 0.234656 -0.222623
-0.31606 0.158217 -0.127744
-0.336702 0.0868509 -0.0478404
-0.346715 0.0409432 0.000507973
-0.345993 0.022674 0.00922772
-0.334466 0.0270205 -0.021567
-0.313005 0.0561184 -0.0858828
-0.281808 0.112605 -0.168851
-0.241003 0.209007 -0.258811
-0.195893 0.344904 -0.340835
-0.148504 0.476948 -0.391354
-0.104983 0.580581 -0.400695
-0.0677771 0.616988 -0.368012
-0.0386766 0.564612 -0.2987
-0.140545 -0.222571 -0.213408
-0.161905 -0.170686 -0.306614
-0.175133 -0.0528657 -0.385409
-0.180796 0.0949298 -0.434358
-0.179492 0.224643 -0.436468
-0.174505 0.298948 -0.39064
-0.166648 0.29026 -0.311527
-0.159458 0.218451 -0.217637
-0.154469 0.122474 -0.129701
-0.153284 0.0338651 -0.0674052
-0.15883 -0.0231803 -0.0400224
-0.173782 -0.0450318 -0.0475117
-0.196808 -0.0375979 -0.084201
-0.224465 -0.00172638 -0.143119
-0.24844 0.0627939 -0.213526
-0.260445 0.166038 -0.291182
-0.25917 0.306581 -0.36711
-0.241816 0.442521 -0.417037
-0.211527 0.549459 -0.429793
-0.172192 0.590628 -0.401286
-0.130405 0.544476 -0.332002
-0.13694 -0.190227 -0.228615
-0.153422 -0.135873 -0.323316
-0.156225 -0.0212581 -0.399844
-0.143505 0.117713 -0.441705
-0.114728 0.232308 -0.434487
-0.0734712 0.286578 -0.379838
-0.0231043 0.256146 -0.296813
0.0284996 0.165336 -0.207698
0.072758 0.0570457 -0.134115
0.100443 -0.0348668 -0.0927641
0.102952 -0.0855764 -0.0857618
0.0745773 -0.0938032 -0.10546
0.0174551 -0.0700424 -0.1412
-0.0609266 -0.0210915 -0.18552
-0.144176 0.0493297 -0.232838
-0.215847 0.149179 -0.286825
-0.267403 0.278701 -0.345824
-0.290568 0.401733 -0.388261
-0.284471 0.496795 -0.402751
-0.25343 0.532618 -0.382364
-0.207369 0.490086 -0.322385
-0.113195 -0.144496 -0.203661
-0.123124 -0.0893426 -0.28922
-0.115735 0.0158974 -0.3578
-0.0870385 0.136073 -0.392622
-0.0352208 0.223965 -0.381645
0.036679 0.247899 -0.327502
0.123569 0.190259 -0.250102
0.21452 0.0815585 -0.173619
0.294842 -0.0314139 -0.119611
0.348566 -0.113614 -0.100787
0.362028 -0.142344 -0.112695
0.326643 -0.121743 -0.14074
0.244586 -0.0698242 -0.169735
0.126078 -0.00167275 -0.192108
-0.0067178 0.0737149 -0.207792
-0.131108 0.162169 -0.228214
-0.232236 0.267599 -0.260225
-0.296716 0.362975 -0.289374
-0.319559 0.432375 -0.30502
-0.304213 0.452921 -0.297942
-0.261625 0.410147 -0.258677
-0.0796528 -0.0946067 -0.142415
-0.0844775 -0.040328 -0.207964
-0.071136 0.0510865 -0.261206
-0.0343123 0.145806 -0.286044
0.0289228 0.199716 -0.273154
0.116912 0.187332 -0.225336
0.22421 0.100259 -0.160504
0.339027 -0.0239589 -0.103083
0.442968 -0.134855 -0.0736757
0.51586 -0.197037 -0.0799155
0.54083 -0.191967 -0.111447
0.507194 -0.131298 -0.147394
0.416345 -0.0424798 -0.168273
0.279147 0.0496622 -0.166356
0.119699 0.129943 -0.146585
-0.0364181 0.201909 -0.127347
-0.170603 0.274226 -0.124613
-0.266085 0.331341 -0.135181
-0.314663 0.365003 -0.150197
-0.317745 0.362511 -0.159149
-0.284846 0.316052 -0.148975
-0.0441123 -0.0493037 -0.0565187
-0.0463469 0.00276752 -0.0939027
-0.0326745 0.0785074 -0.125785
0.00235688 0.145389 -0.138145
0.0623719 0.163436 -0.123615
0.147493 0.113843 -0.0841722
0.253323 -0.00166298 -0.0349607
0.369788 -0.13845 0.000241662
0.478128 -0.242758 0.00216265
0.557552 -0.279259 -0.0315223
0.590803 -0.234636 -0.0853375
0.56661 -0.128922 -0.132638
0.485114 0.000362391 -0.14953
0.355627 0.118389 -0.127373
0.199931 0.203574 -0.0748389
0.0421522 0.25723 -0.0159039
-0.0992778 0.293409 0.024612
-0.206933 0.308493 0.0362908
-0.271077 0.302492 0.0248947
-0.290549 0.273967 0.00108489
-0.271059 0.222139 -0.0196451
-0.00981901 -0.0148834 0.0409551
-0.0109298 0.0341479 0.0359503
-0.00101708 0.0943808 0.0289091
0.024051 0.134464 0.0311573
0.0674483 0.119214 0.0476315
0.13117 0.0361031 0.0777136
0.213158 -0.103163 0.109644
0.307356 -0.248409 0.120215
0.398499 -0.34319 0.0914488
0.469111 -0.352526 0.026043
0.504719 -0.268514 -0.0561635
0.495309 -0.119165 -0.123108
0.439516 0.048683 -0.146056
0.343246 0.191155 -0.114047
0.222205 0.28079 -0.0376759
0.0945525 0.317494 0.0554168
-0.025107 0.318848 0.132741
-0.122349 0.293394 0.170197
-0.188131 0.249949 0.168836
-0.218648 0.196595 0.137929
-0.214407 0.13955 0.0935594
0.0248114 0.00841375 0.136997
0.0243224 0.0539986 0.164045
0.0282503 0.100433 0.181707
0.0382175 0.11748 0.19856
0.056248 0.0750164 0.217042
0.0856981 -0.0343177 0.236443
0.127611 -0.190516 0.248972
0.181382 -0.339603 0.23239
0.238079 -0.424277 0.169728
0.286635 -0.410051 0.0680879
0.31798 -0.293859 -0.049085
0.325139 -0.109976 -0.144959
0.305378 0.0877413 -0.185889
0.260119 0.248668 -0.157279
0.196549 0.341392 -0.069761
0.124009 0.363687 0.0473976
0.0498272 0.335865 0.156214
-0.0175417 0.27723 0.221654
-0.071554 0.204305 0.238543
-0.106716 0.132819 0.212678
-0.117838 0.0729804 0.15976
0.0544128 0.0220524 0.210264
0.0557434 0.0640681 0.261089
0.0555923 0.0993574 0.296946
0.0525164 0.0990229 0.324628
0.0466088 0.0378427 0.343478
0.0410326 -0.0875305 0.351893
0.0393401 -0.251713 0.345245
0.0465427 -0.399619 0.30388
0.0608785 -0.475158 0.212841
0.0792904 -0.444914 0.0814754
0.0997093 -0.309464 -0.0648176
0.119528 -0.106487 -0.187114
0.135294 0.106794 -0.249069
0.143997 0.276495 -0.232838
0.144048 0.36931 -0.14773
0.13534 0.381376 -0.0221618
0.11614 0.334057 0.104377
0.0874067 0.254573 0.191896
0.0524208 0.164635 0.228705
0.0174699 0.0847041 0.216386
-0.00748374 0.0262657 0.169366
0.0728564 0.0280994 0.245625
0.0776693 0.0662009 0.308212
0.0777641 0.0930064 0.352664
0.0686326 0.0816997 0.383599
0.0474521 0.0115603 0.400765
0.0160574 -0.11845 0.400577
-0.0209935 -0.280589 0.380618
-0.0553932 -0.421742 0.323198
-0.0817045 -0.489209 0.215926
-0.0952641 -0.451579 0.0682332
-0.0908356 -0.31173 -0.0948884
-0.0659402 -0.107577 -0.235074
-0.0236776 0.104366 -0.315546
0.0296798 0.270906 -0.315981
0.0856852 0.359011 -0.243426
0.134266 0.364553 -0.1233
0.165648 0.308225 0.00697543
0.173939 0.221384 0.107826
0.159267 0.128186 0.16196
0.127881 0.0502209 0.167369
0.0924738 -0.00159636 0.13627
0.078452 0.0286586 0.238988
0.0872543 0.0621413 0.300671
0.0909481 0.0826244 0.344032
0.0822585 0.0663394 0.372234
0.0556986 -0.0038215 0.385171
0.0111574 -0.12751 0.38001
-0.047479 -0.277729 0.354795
-0.110356 -0.406377 0.29382
-0.167243 -0.466128 0.186338
-0.207131 -0.428761 0.0408247
-0.218999 -0.29814 -0.120721
-0.195893 -0.109386 -0.263404
-0.139844 0.0856152 -0.352797
-0.0584051 0.238077 -0.36795
0.0345461 0.317587 -0.313243
0.122102 0.319944 -0.209549
0.189058 0.264377 -0.0896557
0.224606 0.182356 0.0115845
0.226521 0.0975685 0.0747142
0.200606 0.0295889 0.095304
0.16035 -0.0126794 0.0826683
0.0704734 0.0280107 0.196134
0.0825469 0.055505 0.246177
0.0908692 0.0705774 0.280868
0.0869412 0.0526792 0.302073
0.063667 -0.0116932 0.309962
0.0193856 -0.121134 0.303628
-0.0432526 -0.251514 0.280817
-0.114917 -0.361797 0.228507
-0.18414 -0.412154 0.137522
-0.237217 -0.378818 0.0142959
-0.260274 -0.265908 -0.124255
-0.244239 -0.103743 -0.249787
-0.189334 0.0632076 -0.333517
-0.103505 0.193228 -0.356586
-0.00176128 0.260612 -0.320699
0.0972216 0.261438 -0.241706
0.176612 0.21196 -0.145125
0.223969 0.141359 -0.0580043
0.235797 0.0717635 0.00205124
0.217107 0.0185298 0.0297057
0.179909 -0.0128297 0.0315916
-0.036781 0.133164 0.0880895
-0.0503897 0.146747 0.0928316
-0.061123 0.128743 0.0696549
-0.0639808 0.0756523 0.0197994
-0.0580899 -0.00570008 -0.0430434
-0.045798 -0.0951727 -0.0978785
-0.0340215 -0.16219 -0.123556
-0.0294259 -0.181567 -0.11113
-0.0384314 -0.143914 -0.064028
-0.0636069 -0.0588666 0.00569214
-0.103503 0.0453324 0.0751712
-0.153033 0.134568 0.125589
-0.203231 0.182903 0.148446
-0.245337 0.183644 0.148912
-0.275798 0.148541 0.138519
-0.293917 0.101794 0.133346
-0.296591 0.0692214 0.143602
-0.283378 0.0577314 0.161315
-0.257479 0.0618574 0.173551
-0.224243 0.0690443 0.171658
-0.188794 0.0681042 0.148306
0.00561383 0.141377 0.140249
0.00545471 0.159859 0.145613
0.00791939 0.144283 0.109331
0.0160845 0.0900801 0.0345521
0.0282642 0.00394412 -0.05931
0.0411036 -0.0929207 -0.144252
0.0469856 -0.16728 -0.189331
0.0404065 -0.188968 -0.182087
0.0171691 -0.145029 -0.12765
-0.0220298 -0.0448075 -0.042073
-0.0726621 0.0796233 0.0444168
-0.127911 0.188342 0.106401
-0.178157 0.250303 0.132017
-0.216301 0.257265 0.127139
-0.241662 0.221483 0.107272
-0.255939 0.171013 0.0940209
-0.257494 0.135837 0.102081
-0.246163 0.12126 0.123533
-0.224911 0.120446 0.14513
-0.197858 0.119505 0.154603
-0.168316 0.107349 0.140925
0.0708962 0.130448 0.193335
0.0900489 0.154599 0.197871
0.110034 0.147431 0.147136
0.130675 0.101596 0.0470183
0.147823 0.0214665 -0.0774138
0.156945 -0.0728643 -0.193121
0.151198 -0.148215 -0.259572
0.127881 -0.171144 -0.261151
0.0874746 -0.124856 -0.204052
0.0354095 -0.0166837 -0.108356
-0.0207698 0.120148 -0.0104868
-0.0726228 0.242418 0.0582742
-0.112095 0.315661 0.0828621
-0.134689 0.330431 0.0694634
-0.144457 0.298858 0.0369553
-0.147811 0.251092 0.0120926
-0.144696 0.219368 0.0140519
-0.135952 0.205572 0.0377212
-0.124263 0.201486 0.0700626
-0.111687 0.191329 0.0961737
-0.0980423 0.164183 0.101608
0.139042 0.0987327 0.232353
0.176817 0.129377 0.233623
0.212284 0.137322 0.169167
0.241695 0.111194 0.0482175
0.258809 0.0501917 -0.100126
0.258756 -0.0299771 -0.239495
0.236884 -0.100059 -0.322293
0.1939 -0.124609 -0.330783
0.136111 -0.0831492 -0.272224
0.0731139 0.0208688 -0.170223
0.0156017 0.15653 -0.0658942
-0.0267136 0.28092 0.00493091
-0.0481016 0.358903 0.0246273
-0.04788 0.381007 -0.000182989
-0.0338548 0.358197 -0.0484679
-0.0178691 0.321778 -0.0885345
-0.00340396 0.30355 -0.0968353
0.00719404 0.299108 -0.0731153
0.0108263 0.297991 -0.0314269
0.00743517 0.281168 0.0121374
0.00111273 0.237746 0.0402748
0.185447 0.0476491 0.243741
0.2337 0.0859625 0.238499
0.276197 0.115636 0.163505
0.305617 0.119862 0.0304206
0.314871 0.0901503 -0.128615
0.299474 0.0349657 -0.276846
0.258203 -0.0242609 -0.364074
0.195408 -0.0519295 -0.372368
0.121799 -0.0235501 -0.310443
0.0510914 0.0626257 -0.204457
-0.00372594 0.181445 -0.0979792
-0.0323502 0.294041 -0.0291328
-0.0315145 0.367624 -0.0168951
-0.0041955 0.394169 -0.0544558
0.0381315 0.383013 -0.119069
0.0802443 0.365947 -0.176476
0.114353 0.371562 -0.199205
0.134854 0.386803 -0.181009
0.137675 0.397464 -0.13399
0.123795 0.380224 -0.0768815
0.101083 0.32312 -0.0282367
0.191188 -0.0182652 0.213683
0.239582 0.0286312 0.197578
0.279473 0.0851481 0.116366
0.300877 0.127761 -0.016547
0.296414 0.138484 -0.168285
0.262561 0.116148 -0.304162
0.201402 0.071587 -0.378007
0.120238 0.0390068 -0.374677
0.0335522 0.0469264 -0.304753
-0.0414679 0.103304 -0.195846