# vtk DataFile Version 2.0
Func
ASCII
DATASET RECTILINEAR_GRID
DIMENSIONS 21 21 21
X_COORDINATES 21 double
-4.7619
-4.28571
-3.80952
-3.33333
-2.85714
-2.38095
-1.90476
-1.42857
-0.952381
-0.47619
0
0.47619
0.952381
1.42857
1.90476
2.38095
2.85714
3.33333
3.80952
4.28571
4.7619
Y_COORDINATES 21 double
-4.7619
-4.28571
-3.80952
-3.33333
-2.85714
-2.38095
-1.90476
-1.42857
-0.952381
-0.47619
0
0.47619
0.952381
1.42857
1.90476
2.38095
2.85714
3.33333
3.80952
4.28571
4.7619
Z_COORDINATES 21 double
-4.7619
-4.28571
-3.80952
-3.33333
-2.85714
-2.38095
-1.90476
-1.42857
-0.952381
-0.47619
0
0.47619
0.952381
1.42857
1.90476
2.38095
2.85714
3.33333
3.80952
4.28571
4.7619
POINT_DATA 9261
SCALARS data double 3
LOOKUP_TABLE default
0.131032 0.176772 0.0288413
0.154017 0.190966 0.0489788
0.171806 0.183253 0.0762996
0.178611 0.165712 0.11036
0.170053 0.150818 0.147805
0.143279 0.146908 0.184051
0.09684 0.159186 0.207619
0.0343643 0.172569 0.209653
-0.0387249 0.166844 0.185194
-0.114363 0.130514 0.13698
-0.181045 0.0636965 0.0740767
-0.228819 -0.0188396 0.0105468
-0.251664 -0.0936324 -0.0393618
-0.249001 -0.137951 -0.0661514
-0.2261 -0.142368 -0.0678345
-0.19199 -0.110527 -0.0491395
-0.155458 -0.0565328 -0.0192045
-0.122959 -0.00112156 0.00973193
-0.0980639 0.0402667 0.0303883
-0.0802834 0.0586685 0.0395248
-0.0646614 0.0549472 0.0370099
0.175007 0.199752 0.0743054
0.206338 0.212815 0.108306
0.230103 0.19812 0.145741
0.240898 0.172132 0.183376
0.234303 0.151557 0.215661
0.208809 0.147152 0.238826
0.163284 0.165705 0.244364
0.101695 0.188616 0.227203
0.0285652 0.190897 0.186633
-0.0488102 0.157975 0.129292
-0.119567 0.088272 0.0657888
-0.173856 -0.00205735 0.00922992
-0.205443 -0.0862145 -0.0293775
-0.213224 -0.137922 -0.0453446
-0.201302 -0.146494 -0.0405074
-0.177091 -0.11611 -0.0220143
-0.148233 -0.062227 0.0012294
-0.120162 -0.00747542 0.0192829
-0.0967675 0.0327289 0.0297641
-0.0782257 0.04907 0.0318456
-0.0607418 0.0438259 0.0270088
0.206064 0.207521 0.123526
0.242198 0.216527 0.171381
0.269288 0.192805 0.215878
0.283771 0.15621 0.251065
0.283033 0.128362 0.268908
0.267218 0.122591 0.26681
0.235687 0.147934 0.242773
0.192104 0.183046 0.19862
0.138996 0.198657 0.140542
0.0795732 0.17662 0.080039
0.0212065 0.112669 0.028487
-0.0289684 0.0228919 -0.00491274
-0.0660096 -0.0641769 -0.0164993
-0.0879314 -0.120369 -0.0103901
-0.0960692 -0.133664 0.00535075
-0.0935266 -0.108455 0.0206202
-0.0842439 -0.0604976 0.0283616
-0.0709989 -0.0128172 0.0248079
-0.0574634 0.0210601 0.0159219
-0.0447633 0.032536 0.00587305
-0.0310378 0.0256862 -0.00173015
0.214907 0.200519 0.15997
0.25127 0.201227 0.217098
0.278607 0.165964 0.263762
0.296768 0.117826 0.291527
0.305735 0.0831692 0.290271
0.30756 0.0771706 0.257662
0.302235 0.111274 0.200019
0.291654 0.161505 0.127624
0.275141 0.194721 0.0547785
0.250165 0.189226 -0.00213743
0.218478 0.137578 -0.0315194
0.182863 0.0548862 -0.0299948
0.14595 -0.0297006 -0.00385176
0.110317 -0.0871919 0.0316041
0.0785657 -0.104587 0.0605849
0.0532482 -0.0860647 0.0695713
0.0351164 -0.0470117 0.0546125
0.0252908 -0.00997385 0.0218191
0.0211171 0.0144654 -0.0129051
0.0211611 0.0189851 -0.0390962
0.0247767 0.00967857 -0.0495218
0.19552 0.181286 0.165008
0.226603 0.169856 0.224257
0.251011 0.120947 0.269193
0.271952 0.060235 0.289304
0.292798 0.0193136 0.271027
0.317128 0.0139896 0.212832
0.34537 0.0581459 0.127718
0.377219 0.125442 0.033876
0.407626 0.179178 -0.0469158
0.427828 0.194285 -0.0938656
0.432909 0.159919 -0.0954869
0.420376 0.0895841 -0.0547897
0.38987 0.0122082 0.0113767
0.344171 -0.0431718 0.0761711
0.290046 -0.0628213 0.116215
0.236056 -0.0502406 0.114372
0.188405 -0.0203105 0.0708045
0.152056 0.00540649 0.00410222
0.126397 0.0192263 -0.0598087
0.109593 0.0157252 -0.103312
0.098899 0.00263228 -0.115213
0.148947 0.155873 0.127011
0.172538 0.130414 0.18124
0.193527 0.0665392 0.222502
0.217386 -0.00784358 0.238153
0.249915 -0.0560933 0.211007
0.296195 -0.0614493 0.139915
0.356842 -0.00800273 0.0407946
0.429203 0.0759494 -0.0624383
0.504415 0.1507 -0.141687
0.568916 0.188104 -0.172493
0.611833 0.173918 -0.143845
0.625757 0.119733 -0.0649688
0.607234 0.0537243 0.037308
0.55862 0.00441905 0.125615
0.48983 -0.0138783 0.170368
0.414468 -0.00400048 0.151708
0.342926 0.0195621 0.0746433
0.283755 0.0360274 -0.0286662
0.238267 0.039989 -0.122276
0.204735 0.0282832 -0.181647
0.179001 0.00966066 -0.192217
0.086938 0.130794 0.0411971
0.103691 0.0908227 0.0828722
0.122096 0.0111767 0.121689
0.148588 -0.077973 0.142349
0.189635 -0.135471 0.124051
0.251002 -0.142693 0.0637379
0.333389 -0.0822719 -0.0264884
0.432236 0.0158674 -0.12123
0.537519 0.109735 -0.188537
0.633481 0.168399 -0.201818
0.705403 0.174518 -0.14992
0.742325 0.137909 -0.045843
0.738161 0.0859495 0.0771164
0.694217 0.046515 0.174909
0.621908 0.0344073 0.214439
0.537998 0.0471355 0.174713
0.455267 0.0699551 0.0653384
0.384007 0.0823169 -0.0699954
0.327317 0.0792658 -0.18785
0.283187 0.060275 -0.258709
0.246775 0.034064 -0.265696
0.0227667 0.111205 -0.0806878
0.0357577 0.0581201 -0.0568223
0.0542233 -0.0369733 -0.0182709
0.0830529 -0.141652 0.0178971
0.127753 -0.21076 0.0271678
0.193788 -0.222709 0.00158757
0.281721 -0.159463 -0.0570666
0.387166 -0.0517788 -0.126462
0.501071 0.0565437 -0.173904
0.609052 0.132441 -0.172371
0.695408 0.156159 -0.109497
0.74762 0.136272 0.00143536
0.757843 0.099616 0.125623
0.725801 0.0734867 0.21749
0.662487 0.0728968 0.243599
0.5847 0.0954098 0.183484
0.50557 0.12483 0.0500628
0.435291 0.139885 -0.105798
0.377659 0.134195 -0.238066
0.330652 0.109504 -0.314479
0.289369 0.0742743 -0.317283
-0.0309214 0.0996402 -0.215293
-0.017747 0.0355994 -0.211412
0.00366725 -0.0733159 -0.171028
0.0344246 -0.193077 -0.111976
0.0772494 -0.275284 -0.0623052
0.136691 -0.295001 -0.0369464
0.213811 -0.233747 -0.0486376
0.305421 -0.122637 -0.0818809
0.405967 -0.00659511 -0.106215
0.505729 0.0800693 -0.0957472
0.590834 0.116218 -0.0358027
0.649174 0.109966 0.0636847
0.672013 0.0880573 0.171539
0.656964 0.0773599 0.245818
0.6126 0.0926925 0.255638
0.553042 0.131078 0.18221
0.489498 0.174068 0.0395289
0.430749 0.198505 -0.120559
0.380944 0.195212 -0.254211
0.338293 0.167379 -0.329985
0.298288 0.123098 -0.330835
-0.0660303 0.0949848 -0.337241
-0.0489978 0.0233348 -0.351899
-0.0228907 -0.0968967 -0.308466
0.00867572 -0.229741 -0.224814
0.0446564 -0.325451 -0.131627
0.0880945 -0.355449 -0.0517155
0.140835 -0.301056 -0.0133813
0.201943 -0.193063 -0.00971108
0.271242 -0.0767243 -0.0141831
0.345904 0.0134573 -0.00289758
0.416184 0.0561392 0.0419973
0.472074 0.0597098 0.116604
0.504761 0.0511062 0.197248
0.509414 0.0567108 0.249532
0.490474 0.0905805 0.247026
0.457125 0.148502 0.17333
0.417062 0.209293 0.0409008
0.376773 0.247305 -0.104595
0.340307 0.249974 -0.225635
0.306683 0.221771 -0.294601
0.272725 0.169973 -0.29674
-0.0815483 0.0936204 -0.425
-0.0592291 0.0173721 -0.455225
-0.0291924 -0.110272 -0.410891
0.000655306 -0.252326 -0.308864
0.0256114 -0.35962 -0.180938
0.0470609 -0.400163 -0.0571531
0.0679634 -0.355583 0.021313
0.0902611 -0.255957 0.053126
0.11991 -0.146114 0.0602385
0.16153 -0.0597394 0.0642266
0.210501 -0.0170949 0.0863736
0.259664 -0.00872024 0.130097
0.300482 -0.007169 0.181381
0.325528 0.0134247 0.215615
0.33404 0.0658266 0.211581
0.329043 0.143951 0.155322
0.314137 0.223766 0.0550862
0.293449 0.276999 -0.0563705
0.270857 0.287806 -0.151191
0.246939 0.261584 -0.207955
0.220715 0.205296 -0.215229
-0.0831113 0.0904703 -0.465647
-0.0571439 0.0123584 -0.507777
-0.026611 -0.118302 -0.467803
-0.00214199 -0.264259 -0.360606
0.00896744 -0.378712 -0.216994
0.00670746 -0.4272 -0.0718263
-0.00463561 -0.392492 0.026605
-0.0201988 -0.303923 0.0709817
-0.0283783 -0.205388 0.079047
-0.0181724 -0.128972 0.0700517
0.0106269 -0.092614 0.0679825
0.053551 -0.0849921 0.0830879
0.102336 -0.0778028 0.111079
0.147033 -0.0456652 0.137433
0.181407 0.0224925 0.145906
0.20216 0.118238 0.124674
0.20908 0.214935 0.0758205
0.204461 0.282039 0.0144426
0.192244 0.301276 -0.0432452
0.175275 0.278619 -0.0834248
0.155504 0.221429 -0.0984678
-0.0801783 0.0805426 -0.456944
-0.0551028 0.00275079 -0.507366
-0.0295513 -0.126259 -0.478764
-0.0146013 -0.26976 -0.383263
-0.0184432 -0.38489 -0.248315
-0.0418829 -0.436348 -0.109878
-0.079339 -0.409066 -0.0159444
-0.123622 -0.331758 0.0236104
-0.159088 -0.246871 0.0232481
-0.170696 -0.184296 -9.67781e-05
-0.154766 -0.158664 -0.0215379
-0.113902 -0.156332 -0.0261558
-0.0562991 -0.148091 -0.0103725
0.00599694 -0.109172 0.0200417
0.061896 -0.0304514 0.0530527
0.102619 0.0771626 0.0786527
0.125061 0.185153 0.0922064
0.130483 0.261728 0.089609
0.123216 0.287619 0.075067
0.108724 0.269104 0.0544356
0.0922542 0.214663 0.0315359
-0.0818567 0.0615477 -0.406351
-0.0641743 -0.0146341 -0.462099
-0.0500485 -0.137359 -0.451688
-0.0485316 -0.271797 -0.383819
-0.0666919 -0.380001 -0.280534
-0.105386 -0.427827 -0.174828
-0.15808 -0.403563 -0.107132
-0.216393 -0.335547 -0.0863707
-0.263109 -0.264314 -0.100401
-0.282242 -0.217182 -0.134771
-0.268617 -0.204796 -0.166227
-0.224105 -0.211004 -0.178454
-0.156988 -0.205871 -0.163148
-0.0805609 -0.165466 -0.119648
-0.00927933 -0.0827162 -0.0566322
0.0442749 0.0291374 0.0176477
0.0753377 0.140687 0.0928954
0.0848239 0.220357 0.147948
0.0776287 0.249566 0.176142
0.0615318 0.234757 0.175991
0.0446839 0.18621 0.148012
-0.0917333 0.0332921 -0.327173
-0.0874793 -0.0410588 -0.384497
-0.0897549 -0.15391 -0.395434
-0.103873 -0.273061 -0.365375
-0.134161 -0.366563 -0.309276
-0.180596 -0.403533 -0.253396
-0.236146 -0.376956 -0.225477
-0.292762 -0.315147 -0.230673
-0.334325 -0.256259 -0.25829
-0.346863 -0.224696 -0.296772
-0.325753 -0.22655 -0.327319
-0.273194 -0.243072 -0.335955
-0.197556 -0.243874 -0.313315
-0.112259 -0.206193 -0.25484
-0.0330413 -0.125165 -0.166226
0.0258916 -0.0161802 -0.0532684
0.0593964 0.0914583 0.0706711
0.0685377 0.167723 0.172492
0.0587081 0.196227 0.236907
0.0390474 0.18374 0.256324
0.0196566 0.142755 0.228493
-0.107584 -0.000656693 -0.23341
-0.120922 -0.0729469 -0.288464
-0.142396 -0.173832 -0.319884
-0.172323 -0.273429 -0.330323
-0.210964 -0.34584 -0.327332
-0.25724 -0.365952 -0.327241
-0.304516 -0.332425 -0.342235
-0.346075 -0.273751 -0.372173
-0.369601 -0.225278 -0.407718
-0.365472 -0.208209 -0.440957
-0.331107 -0.223831 -0.460271
-0.269565 -0.250937 -0.457444
-0.188911 -0.259074 -0.425367
-0.101355 -0.226934 -0.357746
-0.021668 -0.151904 -0.257079
0.0364183 -0.0509589 -0.125549
0.0685471 0.0470429 0.0240165
0.075825 0.114828 0.153749
0.0636444 0.139403 0.242935
0.0411391 0.12762 0.279252
0.0190196 0.0943494 0.257957
-0.124011 -0.0356291 -0.139651
-0.155107 -0.105569 -0.188862
-0.194614 -0.192847 -0.236152
-0.237598 -0.270785 -0.28202
-0.280211 -0.318653 -0.327105
-0.319918 -0.318719 -0.377015
-0.351362 -0.275708 -0.428254
-0.370167 -0.21824 -0.475193
-0.369096 -0.178362 -0.510199
-0.34424 -0.173889 -0.52969
-0.295881 -0.201463 -0.53087
-0.227999 -0.237863 -0.513377
-0.147772 -0.253114 -0.474562
-0.0649711 -0.227649 -0.407964
0.00848843 -0.160898 -0.312582
0.0612378 -0.0711854 -0.186034
0.0901171 0.0136301 -0.0371972
0.0960418 0.0699447 0.0986035
0.0837644 0.0885575 0.198392
0.0608395 0.0764081 0.246754
0.0371825 0.0497805 0.237069
-0.130683 -0.0659745 -0.0602416
-0.175577 -0.132382 -0.101011
-0.228547 -0.205382 -0.155963
-0.280071 -0.261914 -0.223566
-0.322418 -0.285806 -0.300262
-0.352172 -0.266667 -0.382771
-0.365393 -0.214821 -0.455777
-0.360627 -0.158377 -0.509312
-0.336032 -0.125626 -0.537457
-0.293525 -0.130917 -0.540868
-0.236197 -0.167004 -0.524587
-0.168503 -0.209598 -0.49552
-0.0959781 -0.230035 -0.455736
-0.025019 -0.210817 -0.399594
0.0366193 -0.15317 -0.323261
0.0811224 -0.0759776 -0.220182
0.106566 -0.00550174 -0.0935906
0.113145 0.0387444 0.0289045
0.104122 0.0509012 0.124754
0.0844481 0.0380206 0.177722
0.0617731 0.0164721 0.180573
-0.121605 -0.0877975 0.00155926
-0.172805 -0.149121 -0.0279259
-0.231774 -0.207987 -0.0818427
-0.285817 -0.24491 -0.158053
-0.325142 -0.247868 -0.249096
-0.344848 -0.213194 -0.346153
-0.342507 -0.155592 -0.426487
-0.319196 -0.101658 -0.47759
-0.277795 -0.0755147 -0.494757
-0.224871 -0.0879825 -0.482269
-0.165818 -0.128871 -0.451477
-0.105129 -0.173903 -0.415262
-0.0463851 -0.196598 -0.380021
0.00763328 -0.181866 -0.341458
0.0538279 -0.132575 -0.293396
0.0879572 -0.0673558 -0.22529
0.10937 -0.0103245 -0.134283
0.117383 0.0228165 -0.0378163
0.113579 0.0290695 0.0441055
0.0998258 0.0153751 0.0958836
0.0804676 -0.00282085 0.109973
-0.0973798 -0.0985635 0.0415605
-0.147075 -0.153179 0.0243017
-0.204149 -0.198972 -0.021186
-0.255268 -0.220037 -0.0931237
-0.289452 -0.207982 -0.182728
-0.300921 -0.164124 -0.277146
-0.288306 -0.105649 -0.351926
-0.254503 -0.0564778 -0.393827
-0.205955 -0.0363367 -0.399333
-0.151901 -0.0528088 -0.37492
-0.098977 -0.0941343 -0.335832
-0.0511396 -0.137382 -0.298437
-0.00991874 -0.159149 -0.271958
0.0252955 -0.146982 -0.253495
0.055132 -0.104906 -0.235145
0.0784558 -0.0505051 -0.203579
0.0957429 -0.00505094 -0.151096
0.105522 0.0191834 -0.0855356
0.107559 0.0211392 -0.0228558
0.100938 0.00714494 0.023186
0.0866923 -0.00903699 0.0447673
-0.0652609 -0.098446 0.0592098
-0.106359 -0.145278 0.0523849
-0.154168 -0.180125 0.0192149
-0.196664 -0.190672 -0.0391355
-0.223835 -0.170912 -0.114511
-0.229755 -0.125005 -0.193393
-0.213979 -0.0705045 -0.253828
-0.179844 -0.0277593 -0.28396
-0.135237 -0.0123027 -0.281078
-0.0893537 -0.028976 -0.252187
-0.0485804 -0.0662652 -0.21306
-0.0158858 -0.103985 -0.180249
0.00876158 -0.122547 -0.163645
0.0276308 -0.112144 -0.161588
0.0434937 -0.0769666 -0.165679
0.0572724 -0.0325279 -0.16234
0.0700389 0.00313355 -0.141559
0.0801693 0.0208182 -0.104158
0.0862684 0.0207693 -0.0613991
0.0859073 0.00817262 -0.0245004
0.0775421 -0.00574806 -0.000643511
0.142839 0.167737 0.0079845
0.167991 0.169994 0.0310033
0.188771 0.150437 0.0694176
0.198538 0.127268 0.119887
0.191704 0.116085 0.176889
0.16246 0.122789 0.230307
0.108705 0.150701 0.265194
0.0336889 0.177545 0.271521
-0.0551882 0.175716 0.244891
-0.148315 0.128941 0.189634
-0.231138 0.0393463 0.116699
-0.290574 -0.0715936 0.0417679
-0.318479 -0.170872 -0.0198218
-0.313888 -0.227059 -0.0578589
-0.283283 -0.227226 -0.0695835
-0.238277 -0.17615 -0.0588556
-0.19018 -0.0937881 -0.0338429
-0.147561 -0.00987298 -0.00686248
-0.115264 0.0534383 0.0145227
-0.0928656 0.08353 0.0262323
-0.0748553 0.0808474 0.0269359
0.190544 0.190122 0.0607069
0.224583 0.19012 0.101213
0.251746 0.162124 0.15282
0.265836 0.130008 0.209195
0.261201 0.114236 0.262014
0.233776 0.123153 0.301819
0.181817 0.161452 0.316893
0.108777 0.20159 0.301439
0.02069 0.209245 0.255881
-0.0741525 0.163808 0.189093
-0.162219 0.0662465 0.113843
-0.230369 -0.0590466 0.0448173
-0.269842 -0.173563 -0.00615274
-0.278632 -0.240467 -0.0341239
-0.261356 -0.244973 -0.0402545
-0.227476 -0.192804 -0.0307039
-0.186925 -0.106592 -0.0132377
-0.147441 -0.0194586 0.00211761
-0.11451 0.0451816 0.0128134
-0.0891852 0.0740985 0.0172495
-0.0677679 0.0692506 0.0156459
0.222078 0.198458 0.121887
0.260582 0.193904 0.180072
0.290637 0.155788 0.240623
0.308113 0.112498 0.294009
0.309624 0.0899999 0.329077
0.293628 0.0993565 0.33839
0.258655 0.147567 0.317883
0.207835 0.202879 0.269989
0.144343 0.225036 0.203135
0.071319 0.18912 0.131758
-0.00204169 0.0936783 0.0695092
-0.0656609 -0.0357604 0.0265214
-0.11207 -0.157287 0.00618913
-0.137769 -0.230867 0.00332498
-0.143807 -0.24006 0.00994084
-0.134241 -0.191449 0.0166593
-0.114847 -0.109041 0.0178143
-0.0906273 -0.0273104 0.0100107
-0.0672011 0.0315586 -0.000181133
-0.0471139 0.055232 -0.00893577
-0.0292897 0.0479063 -0.0136392
0.225674 0.19403 0.170035
0.262586 0.181541 0.240283
0.29114 0.131069 0.303135
0.311276 0.0751457 0.346327
0.32286 0.0449404 0.35634
0.327009 0.0537356 0.326877
0.323055 0.111672 0.264254
0.311922 0.183496 0.181119
0.292541 0.224084 0.095555
0.261103 0.204623 0.0274477
0.220037 0.120514 -0.00921815
0.17438 -0.00316673 -0.0112248
0.128952 -0.123186 0.0131635
0.0882374 -0.198329 0.0456742
0.0560375 -0.211333 0.0694927
0.0348054 -0.169154 0.0713864
0.0241869 -0.096157 0.0490378
0.0233975 -0.0263951 0.00988182
0.0276738 0.0211959 -0.0282881
0.0338548 0.0363112 -0.054584
0.0400673 0.0257274 -0.0622853
0.194079 0.180446 0.182265
0.222 0.156865 0.25547
0.244423 0.0918243 0.315139
0.265399 0.0211685 0.346753
0.288789 -0.0183196 0.332903
0.318256 -0.0119696 0.268816
0.353452 0.0542095 0.169727
0.392894 0.142623 0.0582619
0.429803 0.204199 -0.0385757
0.453079 0.206832 -0.095837
0.457275 0.142232 -0.0995613
0.441248 0.0335854 -0.0542207
0.406177 -0.0764974 0.0192878
0.356804 -0.147469 0.0889325
0.301616 -0.161921 0.128971
0.249759 -0.126762 0.121865
0.206917 -0.0660469 0.0697452
0.176623 -0.0119926 -0.00608755
0.156214 0.0207904 -0.0760514
0.142318 0.0250881 -0.121235
0.13084 0.0101145 -0.13014
0.127719 0.16391 0.144975
0.142738 0.127694 0.212338
0.157186 0.0465395 0.266213
0.178109 -0.0410838 0.289398
0.212791 -0.0927061 0.260522
0.267048 -0.0917905 0.176191
0.3406 -0.0203949 0.0562752
0.429474 0.0825918 -0.0694135
0.521721 0.165231 -0.166422
0.60046 0.192731 -0.205476
0.653101 0.152895 -0.173154
0.672548 0.0661255 -0.0813658
0.656042 -0.0269528 0.037088
0.607682 -0.0878608 0.137583
0.539268 -0.0995204 0.186971
0.465385 -0.0688789 0.164218
0.396395 -0.0194966 0.0765636
0.339899 0.0188065 -0.0393371
0.295469 0.0358832 -0.14213
0.260344 0.0282903 -0.204837
0.229287 0.00729524 -0.211771
0.0420655 0.150565 0.0523254
0.0438977 0.101088 0.104991
0.0500409 0.00247276 0.154541
0.0695721 -0.104233 0.180706
0.111239 -0.171235 0.157844
0.182104 -0.179224 0.0815481
0.282046 -0.106542 -0.0317625
0.404796 0.00728863 -0.150168
0.536532 0.108699 -0.234607
0.657313 0.160663 -0.253417
0.749687 0.147263 -0.193132
0.801944 0.0858898 -0.0702818
0.807796 0.0145778 0.074543
0.769838 -0.0309719 0.188693
0.701126 -0.034207 0.234731
0.619829 -0.0026608 0.190084
0.538857 0.0402413 0.0669006
0.467947 0.0669423 -0.0848783
0.408814 0.0703989 -0.214906
0.359034 0.0514597 -0.290378
0.31318 0.0224505 -0.292505
-0.0456298 0.14422 -0.0830388
-0.0535407 0.0825342 -0.051159
-0.0529761 -0.0336454 -0.00296543
-0.0355757 -0.160672 0.0391127
0.00757626 -0.246062 0.0453402
0.0833281 -0.266292 0.00634128
0.191276 -0.197118 -0.0726405
0.325439 -0.0776543 -0.162958
0.47256 0.0375332 -0.224694
0.613584 0.109926 -0.225917
0.729385 0.120593 -0.151992
0.805839 0.0843914 -0.0200002
0.834087 0.0368659 0.127514
0.814551 0.0108168 0.236007
0.759411 0.0219365 0.267499
0.686806 0.061816 0.199849
0.610247 0.10583 0.0489317
0.539444 0.127987 -0.126786
0.477114 0.122296 -0.273571
0.421372 0.0936727 -0.355323
0.367513 0.0551802 -0.351987
-0.117718 0.145291 -0.234269
-0.129826 0.0730846 -0.225666
-0.130615 -0.0589888 -0.175726
-0.115065 -0.205715 -0.107892
-0.0763465 -0.310457 -0.0562091
-0.00851315 -0.345355 -0.0376252
0.0886107 -0.284252 -0.0630112
0.210469 -0.165416 -0.111581
0.34737 -0.0436421 -0.146155
0.484922 0.042025 -0.136385
0.605522 0.0708683 -0.0652632
0.694846 0.056187 0.0538508
0.74249 0.031601 0.182526
0.746067 0.0272479 0.270443
0.714743 0.0575624 0.282488
0.663632 0.112663 0.198402
0.604299 0.165891 0.0353564
0.545151 0.191351 -0.146531
0.489662 0.182649 -0.295793
0.436674 0.147384 -0.377116
0.382361 0.0993763 -0.371073
-0.162735 0.15005 -0.371475
-0.172895 0.0702014 -0.383941
-0.171064 -0.0747463 -0.330037
-0.157 -0.237703 -0.233448
-0.127327 -0.360114 -0.131558
-0.0777249 -0.409966 -0.0498679
-0.00710514 -0.360254 -0.0169068
0.0826431 -0.248002 -0.0219882
0.187637 -0.127528 -0.032808
0.300845 -0.0372704 -0.0216593
0.408871 0.00185465 0.03186
0.499205 0.00281546 0.121359
0.560962 -0.00191271 0.217227
0.588625 0.0154852 0.278108
0.58663 0.0676755 0.274065
0.564627 0.142618 0.187645
0.530584 0.210938 0.0343663
0.490682 0.245702 -0.132263
0.448746 0.239006 -0.268081
0.404728 0.200786 -0.342019
0.356343 0.144711 -0.337357
-0.178301 0.152376 -0.469109
-0.182239 0.0672856 -0.49874
-0.175974 -0.0855766 -0.442941
-0.164064 -0.258607 -0.324326
-0.14691 -0.393732 -0.181817
-0.122019 -0.455643 -0.0487297
-0.0870188 -0.417984 0.0316306
-0.0403753 -0.316567 0.0600899
0.0208784 -0.204578 0.0632441
0.0980295 -0.11874 0.0657978
0.183219 -0.0783737 0.0919489
0.266813 -0.0694118 0.143921
0.338052 -0.0595826 0.203639
0.388202 -0.0228661 0.24147
0.415972 0.0511494 0.233574
0.424237 0.147667 0.165379
0.416776 0.23425 0.0475956
0.397474 0.282105 -0.0808296
0.370476 0.281199 -0.187215
0.337386 0.243146 -0.247565
0.298058 0.181862 -0.249228
-0.171269 0.146385 -0.511615
-0.168173 0.0584174 -0.553771
-0.158656 -0.0967801 -0.502102
-0.150849 -0.272099 -0.376813
-0.148263 -0.41226 -0.215819
-0.149942 -0.480175 -0.0574603
-0.151982 -0.451966 0.0466979
-0.149313 -0.36272 0.0901857
-0.132409 -0.264187 0.0943052
-0.0924672 -0.190574 0.080856
-0.0318725 -0.157866 0.0771388
0.0426785 -0.149413 0.093602
0.120726 -0.132031 0.123947
0.190502 -0.0807582 0.150693
0.244792 0.0122372 0.155798
0.279532 0.128979 0.127126
0.294621 0.233886 0.068162
0.292208 0.295836 -0.00248893
0.277011 0.302636 -0.0661573
0.252846 0.266925 -0.107659
0.222231 0.203403 -0.119109
-0.154314 0.127437 -0.496024
-0.147304 0.0388114 -0.546267
-0.1387 -0.112834 -0.507054
-0.138082 -0.281835 -0.395071
-0.150643 -0.417793 -0.244275
-0.176281 -0.483905 -0.0937881
-0.209553 -0.460517 0.00508132
-0.242452 -0.382473 0.0425584
-0.260428 -0.299671 0.0358038
-0.249409 -0.243213 0.00387254
-0.207569 -0.22445 -0.0247676
-0.139408 -0.223221 -0.0338
-0.0552151 -0.20483 -0.0197858
0.0307317 -0.144905 0.010408
0.105976 -0.0383553 0.0435774
0.160431 0.0936684 0.0695277
0.191064 0.212987 0.0836517
0.199135 0.286477 0.0821014
0.190244 0.300431 0.0689987
0.170703 0.26797 0.0501744
0.145984 0.20512 0.0286643
-0.140655 0.094366 -0.4312
-0.136171 0.0062676 -0.486145
-0.134834 -0.136308 -0.467714
-0.145168 -0.290855 -0.387998
-0.172112 -0.413141 -0.274474
-0.215571 -0.468866 -0.162586
-0.268882 -0.444267 -0.0949976
-0.322302 -0.374446 -0.0806864
-0.358766 -0.307053 -0.105406
-0.362116 -0.26977 -0.152845
-0.328337 -0.268482 -0.196123
-0.260921 -0.279069 -0.216712
-0.170177 -0.265124 -0.205011
-0.0719588 -0.202643 -0.159982
0.0175635 -0.0892832 -0.0910937
0.0840868 0.0508927 -0.00685581
0.122895 0.178 0.0810077
0.135083 0.257872 0.148387
0.127239 0.276397 0.186204
0.107893 0.246851 0.191576
0.0851857 0.187119 0.163318
-0.136877 0.0491651 -0.333691
-0.142096 -0.0384248 -0.38937
-0.154024 -0.168386 -0.395785
-0.17828 -0.301911 -0.360614
-0.217724 -0.402403 -0.302569
-0.271272 -0.440042 -0.249233
-0.331336 -0.408373 -0.228933
-0.388218 -0.34315 -0.246528
-0.42518 -0.289272 -0.289588
-0.427226 -0.270787 -0.344882
-0.390372 -0.287666 -0.390274
-0.318321 -0.311822 -0.409263
-0.221504 -0.305366 -0.390319
-0.11612 -0.244795 -0.327443
-0.0198835 -0.130565 -0.226869
0.0510942 0.0107354 -0.0947667
0.0917519 0.138667 0.0528365
0.103505 0.219036 0.177226
0.0937184 0.23846 0.258911
0.0721888 0.210454 0.287729
0.0488775 0.155149 0.258926
-0.142769 -0.00234005 -0.221415
-0.163537 -0.0895087 -0.273938
-0.193249 -0.205428 -0.30469
-0.232667 -0.314587 -0.317355
-0.281121 -0.387696 -0.321512
-0.336292 -0.401947 -0.333381
-0.390832 -0.35885 -0.363676
-0.436013 -0.294917 -0.411527
-0.4585 -0.251844 -0.466133
-0.447146 -0.24995 -0.518119
-0.399692 -0.283354 -0.553251
-0.320674 -0.32046 -0.561028
-0.220322 -0.32247 -0.531888
-0.113692 -0.266659 -0.457384
-0.0177338 -0.156177 -0.340275
0.0519207 -0.0192586 -0.183076
0.0909554 0.103417 -0.00206673
0.100924 0.179061 0.157638
0.08922 0.196302 0.270032
0.0656379 0.168337 0.31927
0.0407875 0.117704 0.297598
-0.15306 -0.0530394 -0.111972
-0.191122 -0.139392 -0.157856
-0.238948 -0.24038 -0.207777
-0.291815 -0.324451 -0.262263
-0.345118 -0.368554 -0.322199
-0.394956 -0.358007 -0.391938
-0.435059 -0.302178 -0.464393
-0.459075 -0.23794 -0.5327
-0.458348 -0.203176 -0.588218
-0.427453 -0.21448 -0.626191
-0.3669 -0.260776 -0.642268
-0.282222 -0.307989 -0.634485
-0.182891 -0.317412 -0.597909
-0.0814496 -0.267572 -0.523498
0.00792356 -0.163803 -0.410117
0.0721273 -0.0356446 -0.255523
0.107941 0.0771004 -0.0721822
0.116758 0.144345 0.0969657
0.105166 0.157255 0.22321
0.0813803 0.128715 0.2871
0.0553917 0.0823818 0.278691
-0.155217 -0.0951334 -0.0231348
-0.207451 -0.179013 -0.0603177
-0.269594 -0.265055 -0.120203
-0.331818 -0.325958 -0.200466
-0.385577 -0.343898 -0.296606
-0.425892 -0.311797 -0.403124
-0.44786 -0.245625 -0.499896
-0.448229 -0.181535 -0.575273
-0.423723 -0.153006 -0.622746
-0.375123 -0.17304 -0.642377
-0.305857 -0.22674 -0.638731
-0.22197 -0.27923 -0.617935
-0.13128 -0.293319 -0.580207
-0.0426317 -0.249396 -0.517124
0.0341398 -0.154471 -0.424322
0.089927 -0.0381536 -0.295029
0.122548 0.0617652 -0.135617
0.132554 0.118865 0.0193296
0.124588 0.126792 0.141806
0.104191 0.097935 0.211371
0.0792002 0.0555803 0.217538
-0.142204 -0.123313 0.041191
-0.201506 -0.202175 0.0148016
-0.270768 -0.273721 -0.0453251
-0.336357 -0.314714 -0.135907
-0.387305 -0.311872 -0.247321
-0.417052 -0.264473 -0.368407
-0.42217 -0.19309 -0.471216
-0.40241 -0.131542 -0.541618
-0.359594 -0.108333 -0.574709
-0.299862 -0.133005 -0.574837
-0.229221 -0.188443 -0.553827
-0.153675 -0.240856 -0.524465
-0.0788074 -0.256106 -0.491724
-0.00918693 -0.217116 -0.448492
0.0505987 -0.132169 -0.387713
0.0953906 -0.0294399 -0.298254
0.12426 0.0563758 -0.179695
0.136576 0.102956 -0.0550436
0.134641 0.106292 0.0509401
0.120632 0.0779279 0.118669
0.0990503 0.0395802 0.137887
-0.113053 -0.135139 0.0773382
-0.171046 -0.206196 0.0622123
-0.2389 -0.264128 0.010376
-0.301722 -0.289783 -0.0750577
-0.347071 -0.273663 -0.182863
-0.367445 -0.219281 -0.297727
-0.360582 -0.149216 -0.390705
-0.328329 -0.0933428 -0.447282
-0.276835 -0.0748149 -0.464248
-0.215607 -0.100134 -0.44851
-0.152179 -0.151814 -0.416458
-0.0918219 -0.199073 -0.384754
-0.0376038 -0.212227 -0.361508
0.0101635 -0.177221 -0.34117
0.0511623 -0.102855 -0.314659
0.0839502 -0.0147868 -0.267887
0.10867 0.0568174 -0.194742
0.123603 0.0937819 -0.107094
0.128524 0.0939153 -0.0248562
0.122441 0.0673624 0.0349211
0.106376 0.0331773 0.0624766
-0.0753613 -0.131504 0.0863341
-0.124101 -0.192706 0.0804037
-0.182075 -0.238723 0.0418224
-0.23535 -0.254541 -0.0270852
-0.272135 -0.233059 -0.115967
-0.28501 -0.179703 -0.209307
-0.272827 -0.116521 -0.28199
-0.238419 -0.0684158 -0.321567
-0.189975 -0.0534356 -0.325862
-0.137522 -0.0756909 -0.302452
-0.0884823 -0.119258 -0.268374
-0.0467893 -0.157966 -0.240428
-0.0132267 -0.16747 -0.227527
0.0142553 -0.136836 -0.22572
0.0381762 -0.0740975 -0.22544
0.0595723 -0.00128392 -0.212308
0.0792354 0.0564733 -0.177465
0.094976 0.0851817 -0.124424
0.104869 0.0841555 -0.0675925
0.10601 0.0614991 -0.0205259
0.0966455 0.0326865 0.00859996
0.132381 0.106953 -0.0152141
0.157571 0.0883319 0.0106928
0.180575 0.0545602 0.060474
0.193951 0.0289298 0.128073
0.190431 0.0279185 0.205141
0.162261 0.0542266 0.275809
0.106521 0.104755 0.322394
0.0266133 0.149664 0.334704
-0.0696146 0.154471 0.309294
-0.171186 0.0995768 0.251312
-0.261341 -0.00970929 0.172676
-0.325242 -0.144647 0.0891303
-0.353533 -0.263035 0.0158544
-0.344999 -0.325715 -0.0364136
-0.307219 -0.316953 -0.063315
-0.253604 -0.243604 -0.0664043
-0.197303 -0.131171 -0.0511928
-0.148484 -0.0181361 -0.0289306
-0.112822 0.0668129 -0.00746034
-0.0896077 0.10825 0.00772179
-0.0727899 0.106555 0.0135605
0.179557 0.120428 0.0419145
0.212005 0.0973181 0.0885421
0.239665 0.0542356 0.154412
0.255949 0.0209162 0.230313
0.253997 0.0186592 0.304637
0.227735 0.0517287 0.361822
0.174542 0.117375 0.38751
0.097658 0.178677 0.376296
0.00320606 0.193085 0.33006
-0.0998735 0.136045 0.258744
-0.195848 0.0128619 0.176137
-0.269699 -0.142914 0.0968623
-0.311068 -0.281429 0.0324518
-0.317185 -0.356584 -0.0116053
-0.293226 -0.350465 -0.0347049
-0.250073 -0.271845 -0.0402402
-0.199654 -0.150359 -0.0329095
-0.151665 -0.029274 -0.0218754
-0.112804 0.0600347 -0.0102663
-0.0843493 0.101252 -0.00141268
-0.0626076 0.0967142 0.0026869
0.208442 0.124946 0.11246
0.242898 0.0968113 0.179801
0.270829 0.0439232 0.256231
0.288013 0.00109167 0.328435
0.290554 -0.00512648 0.382136
0.275557 0.0316449 0.404437
0.240463 0.110303 0.389405
0.188053 0.188211 0.341155
0.120872 0.215858 0.270413
0.0417512 0.164373 0.193074
-0.038361 0.0376948 0.12373
-0.107639 -0.127806 0.0719661
-0.156781 -0.277135 0.0401988
-0.181024 -0.359931 0.023172
-0.181172 -0.356693 0.0143237
-0.16211 -0.278247 0.0071579
-0.131394 -0.157067 -0.000816156
-0.096425 -0.0385581 -0.0121414
-0.0644691 0.0462143 -0.0207515
-0.0388092 0.0819347 -0.0246841
-0.0191439 0.0741562 -0.0235456
0.204586 0.123272 0.171395
0.233727 0.089022 0.252702
0.256408 0.0253595 0.330956
0.27287 -0.0288081 0.389744
0.283304 -0.0419306 0.412324
0.288096 -0.00552871 0.387866
0.28543 0.0826371 0.32256
0.275527 0.175764 0.232378
0.256006 0.21924 0.138993
0.221838 0.180724 0.0642131
0.176729 0.061829 0.0228705
0.127259 -0.100561 0.0167844
0.0801701 -0.249414 0.0354505
0.0414006 -0.333135 0.0592348
0.0157876 -0.332013 0.071939
0.00512344 -0.258465 0.0630302
0.00737258 -0.146311 0.0333749
0.0192563 -0.0403196 -0.00854702
0.034052 0.0317751 -0.044893
0.0474057 0.0574899 -0.0661246
0.0563497 0.046007 -0.0678857
0.15884 0.119874 0.192784
0.174026 0.0783801 0.277409
0.185733 0.00244167 0.350227
0.198959 -0.0661159 0.392485
0.218501 -0.0903904 0.383365
0.248097 -0.0599465 0.314663
0.285929 0.0324567 0.203468
0.329572 0.137983 0.0776511
0.370511 0.1987 -0.0309084
0.395651 0.179772 -0.0946803
0.400388 0.0795858 -0.0989467
0.38483 -0.0667826 -0.0506439
0.351944 -0.203399 0.0254471
0.307695 -0.280422 0.0941568
0.262044 -0.279174 0.129145
0.223098 -0.213118 0.115214
0.194975 -0.116227 0.0575849
0.178717 -0.0301548 -0.0207967
0.169634 0.0230166 -0.0891415
0.163166 0.0352707 -0.12932
0.154106 0.0193235 -0.132022
0.072153 0.120247 0.160628
0.0677314 0.0709255 0.238437
0.0650654 -0.0188963 0.302433
0.0729651 -0.105466 0.330661
0.100633 -0.146186 0.298819
0.154566 -0.127837 0.201201
0.232865 -0.0372306 0.0612711
0.330213 0.0765676 -0.0845462
0.432472 0.153992 -0.195959
0.519911 0.158568 -0.240401
0.580119 0.0848992 -0.203879