# vtk DataFile Version 2.0
Func
ASCII
DATASET RECTILINEAR_GRID
DIMENSIONS 21 21 21
X_COORDINATES 21 double
-4.7619
-4.28571
-3.80952
-3.33333
-2.85714
-2.38095
-1.90476
-1.42857
-0.952381
-0.47619
0
0.47619
0.952381
1.42857
1.90476
2.38095
2.85714
3.33333
3.80952
4.28571
4.7619
Y_COORDINATES 21 double
-4.7619
-4.28571
-3.80952
-3.33333
-2.85714
-2.38095
-1.90476
-1.42857
-0.952381
-0.47619
0
0.47619
0.952381
1.42857
1.90476
2.38095
2.85714
3.33333
3.80952
4.28571
4.7619
Z_COORDINATES 21 double
-4.7619
-4.28571
-3.80952
-3.33333
-2.85714
-2.38095
-1.90476
-1.42857
-0.952381
-0.47619
0
0.47619
0.952381
1.42857
1.90476
2.38095
2.85714
3.33333
3.80952
4.28571
4.7619
POINT_DATA 9261
SCALARS data double 3
LOOKUP_TABLE default
-0.118391 -0.11034 0.103054
-0.134118 -0.116045 0.12265
-0.14305 -0.0989391 0.124083
-0.14461 -0.0609794 0.106988
-0.139181 -0.00927148 0.0780192
-0.128043 0.0497437 0.0463892
-0.113328 0.10353 0.0265205
-0.0969717 0.149238 0.0210847
-0.0807316 0.187804 0.0274964
-0.0649915 0.219474 0.0423501
-0.0503815 0.245395 0.0577777
-0.0368288 0.264606 0.0686646
-0.0236803 0.274837 0.0739379
-0.0110025 0.274105 0.0758474
-0.000323372 0.26137 0.0777704
0.00633076 0.237085 0.0833566
0.00954978 0.205158 0.0928759
0.0101675 0.167564 0.0998464
0.00851323 0.127123 0.0992777
0.00542 0.086614 0.090228
0.00174918 0.0506423 0.0721096
-0.132825 -0.133647 0.120064
-0.150866 -0.14292 0.139237
-0.160783 -0.123829 0.135649
-0.160864 -0.0799437 0.11135
-0.151067 -0.0203482 0.0761009
-0.133915 0.0458253 0.0410347
-0.112257 0.103212 0.023813
-0.0887227 0.149743 0.0265931
-0.065117 0.18839 0.0439353
-0.0423713 0.221 0.0700462
-0.0208536 0.25041 0.0946393
-0.000487122 0.275924 0.111198
0.0194142 0.294198 0.118344
0.0384349 0.301678 0.118449
0.0542165 0.295772 0.116036
0.064246 0.276048 0.115153
0.0683653 0.245919 0.116703
0.0671141 0.206419 0.114507
0.0605582 0.161821 0.10485
0.0501917 0.114933 0.0886408
0.0384224 0.0724184 0.0659603
-0.127187 -0.155496 0.123131
-0.14259 -0.168414 0.136776
-0.14975 -0.148237 0.126024
-0.146194 -0.0997689 0.0950418
-0.132058 -0.0347059 0.0566054
-0.109948 0.0352298 0.0234349
-0.0828365 0.0922008 0.0139021
-0.0540207 0.134957 0.028726
-0.0258131 0.169159 0.059994
0.00130812 0.199557 0.0991897
0.0269567 0.231139 0.134083
0.051609 0.263729 0.157163
0.0759036 0.292806 0.166645
0.0992348 0.312791 0.164536
0.118873 0.318964 0.155565
0.131447 0.309553 0.143685
0.136314 0.286645 0.130581
0.133294 0.249671 0.112975
0.122121 0.20424 0.0892358
0.104577 0.153135 0.0636128
0.084656 0.104151 0.0379582
-0.104924 -0.174773 0.113794
-0.114614 -0.190165 0.119431
-0.116612 -0.169101 0.100666
-0.108973 -0.117998 0.0645333
-0.0917482 -0.0504625 0.0246117
-0.067425 0.0194938 -0.00343448
-0.0388141 0.0721038 -0.00305131
-0.00869246 0.107641 0.0244905
0.0200537 0.13455 0.0692807
0.047195 0.160583 0.120906
0.072718 0.192954 0.165839
0.097594 0.232121 0.196127
0.122456 0.272599 0.209489
0.146644 0.307121 0.207084
0.167667 0.328891 0.192413
0.181962 0.334857 0.168327
0.187894 0.325113 0.137408
0.184464 0.296728 0.101698
0.171207 0.255459 0.0608808
0.149756 0.202923 0.0237551
0.124593 0.147445 -0.00460905
-0.0750885 -0.190503 0.0990051
-0.0781903 -0.206749 0.0963659
-0.0752377 -0.185114 0.070212
-0.0647779 -0.133095 0.0290424
-0.0476239 -0.0665292 -0.0104898
-0.0249768 0.000416054 -0.0331754
0.000790334 0.0462333 -0.0248563
0.0273709 0.0731161 0.0115257
0.0518079 0.0921196 0.0653437
0.0741436 0.113258 0.125483
0.0947129 0.145522 0.178483
0.114866 0.189902 0.216713
0.135357 0.240359 0.237204
0.155775 0.288748 0.23946
0.174528 0.326813 0.224275
0.188727 0.350693 0.191547
0.196115 0.358172 0.144282
0.194619 0.343697 0.0906274
0.18378 0.310911 0.0327673
0.164206 0.25999 -0.0168343
0.139954 0.198394 -0.0489432
-0.0468474 -0.202532 0.0829651
-0.0459514 -0.21923 0.0728098
-0.0411213 -0.197393 0.0410356
-0.0311425 -0.145921 -0.00264944
-0.0169264 -0.0816669 -0.0412752
0.000637205 -0.0191547 -0.0605958
0.0198109 0.0197482 -0.0494397
0.0390371 0.0390347 -0.0113488
0.0556714 0.0516924 0.0440113
0.0696195 0.0689676 0.106232
0.0814053 0.100874 0.163845
0.092551 0.14864 0.210489
0.104125 0.206023 0.242507
0.1163 0.264925 0.256744
0.128891 0.316613 0.249924
0.140181 0.357077 0.217291
0.147832 0.382279 0.160589
0.14952 0.383711 0.0929905
0.14462 0.362075 0.0201122
0.132757 0.315407 -0.0415859
0.116519 0.249258 -0.0787581
-0.0314951 -0.209423 0.075965
-0.0314257 -0.226588 0.0624026
-0.0292541 -0.205214 0.0277071
-0.023876 -0.155689 -0.0177005
-0.0158502 -0.094653 -0.0578626
-0.00572737 -0.0366014 -0.079808
0.00545344 -0.00232011 -0.0735196
0.0168211 0.0134085 -0.0420258
0.0253157 0.0239386 0.0067356
0.0301611 0.0404032 0.0645478
0.031633 0.0726476 0.123
0.0311303 0.121578 0.177644
0.0303074 0.181082 0.224492
0.0303417 0.244187 0.257591
0.0328478 0.30302 0.268735
0.0377575 0.354487 0.247942
0.0434526 0.393688 0.193982
0.0481383 0.4096 0.121498
0.0513293 0.399357 0.0393969
0.0517961 0.358538 -0.0326622
0.0499415 0.290057 -0.0780832
-0.0288534 -0.208823 0.0772513
-0.0331467 -0.226712 0.0646085
-0.0366494 -0.207084 0.0302262
-0.0376136 -0.160774 -0.0156218
-0.0360744 -0.103596 -0.0589756
-0.0323955 -0.0491763 -0.0875217
-0.0271103 -0.0159947 -0.0910878
-0.0213615 0.00116913 -0.0717306
-0.0187902 0.0150518 -0.0353928
-0.021607 0.0349105 0.0128616
-0.0301817 0.0689574 0.0682052
-0.0435066 0.117028 0.128607
-0.0591373 0.173336 0.190398
-0.0745741 0.232952 0.2454
-0.0862703 0.290171 0.280608
-0.0921723 0.344072 0.281073
-0.0924652 0.390222 0.241411
-0.087426 0.415943 0.173992
-0.0771641 0.414715 0.0897224
-0.0632395 0.379831 0.010249
-0.0476424 0.311845 -0.045555
-0.0328519 -0.197404 0.0822134
-0.0426784 -0.215331 0.0735069
-0.0523885 -0.198877 0.0426016
-0.0591193 -0.157783 -0.00137944
-0.0620708 -0.105806 -0.0467457
-0.0615989 -0.0545895 -0.0813653
-0.058399 -0.0198028 -0.09501
-0.0540126 0.00344661 -0.0889398
-0.0532443 0.0259512 -0.0671547
-0.0602869 0.0534724 -0.0314424
-0.0765218 0.0910979 0.0168629
-0.101556 0.136792 0.0783872
-0.132156 0.185102 0.150619
-0.164345 0.233702 0.224347
-0.192754 0.2801 0.283064
-0.213038 0.326578 0.308057
-0.223418 0.370714 0.28948
-0.222011 0.39937 0.234738
-0.208407 0.403022 0.155601
-0.183934 0.372948 0.0734593
-0.152352 0.308018 0.00788626
-0.0364582 -0.172175 0.088078
-0.0515129 -0.189158 0.0853899
-0.0662062 -0.176472 0.0608188
-0.0770017 -0.142508 0.0221676
-0.0822279 -0.0976197 -0.0215644
-0.0820061 -0.0506315 -0.0583927
-0.0773776 -0.0137614 -0.0784482
-0.0703468 0.0174184 -0.0828623
-0.0672009 0.0510546 -0.07441
-0.0742017 0.0886102 -0.0522318
-0.09393 0.131058 -0.0148661
-0.126732 0.173874 0.0409451
-0.168854 0.211628 0.114765
-0.215054 0.244438 0.197966
-0.258625 0.273253 0.272618
-0.293236 0.303936 0.318226
-0.315221 0.337304 0.321208
-0.320478 0.361157 0.282567
-0.308073 0.364335 0.214031
-0.278652 0.33695 0.135026
-0.2365 0.277388 0.063959
-0.030935 -0.131586 0.0901104
-0.0489112 -0.145205 0.094569
-0.0664127 -0.136116 0.0790386
-0.0796524 -0.110809 0.0498319
-0.0861311 -0.075559 0.0132083
-0.0851939 -0.0356908 -0.0190961
-0.0779688 0.000720719 -0.0388235
-0.0665871 0.0380772 -0.0479524
-0.0586502 0.0818425 -0.0490854
-0.0620748 0.129308 -0.0399331
-0.080551 0.176953 -0.0172557
-0.115186 0.217429 0.0245693
-0.162259 0.244837 0.0878714
-0.215901 0.260994 0.166328
-0.268831 0.269739 0.243181
-0.313496 0.280171 0.298588
-0.345005 0.296883 0.316974
-0.357656 0.309807 0.293745
-0.350125 0.307568 0.239436
-0.322187 0.280289 0.169964
-0.277298 0.227088 0.10105
-0.0124899 -0.07575 0.0866802
-0.0308006 -0.0825564 0.0985054
-0.0495591 -0.0755227 0.0939964
-0.0651056 -0.0595707 0.0779175
-0.0741129 -0.036879 0.0537714
-0.0744486 -0.0088424 0.0325081
-0.066637 0.0214214 0.019435
-0.0522091 0.059225 0.0109929
-0.0393882 0.108076 0.00394832
-0.0369278 0.162228 0.000893811
-0.0493227 0.214042 0.00596355
-0.0784453 0.253405 0.0266678
-0.121401 0.273392 0.0682175
-0.172692 0.276344 0.127721
-0.22542 0.267711 0.191812
-0.271967 0.258736 0.243407
-0.307272 0.257471 0.267134
-0.325144 0.256663 0.255366
-0.324079 0.245853 0.216582
-0.303077 0.216372 0.162254
-0.263574 0.169011 0.10453
0.0174314 -0.00766394 0.0787756
0.00047908 -0.00403505 0.0973435
-0.0194389 0.00344558 0.104336
-0.0389465 0.0102208 0.102896
-0.0537576 0.0176253 0.0937126
-0.0595987 0.0282927 0.086241
-0.0554605 0.0448321 0.0821592
-0.0413266 0.0745926 0.0763302
-0.0249826 0.120425 0.0648784
-0.0151072 0.175429 0.0502421
-0.0166693 0.228912 0.0369597
-0.0324105 0.268487 0.0337186
-0.0612099 0.285781 0.0479494
-0.0991572 0.282349 0.0802001
-0.140758 0.26356 0.12143
-0.179535 0.24114 0.158364
-0.211349 0.225475 0.177718
-0.230674 0.212129 0.17217
-0.235972 0.192216 0.147834
-0.225668 0.159233 0.11174
-0.198429 0.116205 0.0724669
0.0534365 0.0659631 0.0681132
0.0387249 0.0836199 0.0915457
0.0171661 0.0940611 0.107928
-0.00812362 0.0928755 0.118644
-0.0317948 0.0834432 0.121753
-0.0470338 0.0720715 0.124741
-0.0504617 0.067631 0.126049
-0.039741 0.0804275 0.120029
-0.0211026 0.114175 0.103067
-0.00238816 0.163018 0.0777761
0.0111543 0.214699 0.0490347
0.0156408 0.255385 0.0258245
0.00950912 0.275126 0.0163613
-0.00606845 0.273591 0.0233109
-0.0278745 0.254384 0.0412124
-0.0514853 0.227911 0.0602119
-0.0743377 0.205166 0.0700487
-0.092284 0.183868 0.0664401
-0.103715 0.156932 0.0535973
-0.106558 0.120662 0.0352003
-0.0966469 0.0796094 0.0170545
0.0866057 0.138642 0.0544747
0.0746379 0.173185 0.0788096
0.0514458 0.189788 0.100195
0.0205758 0.182638 0.117743
-0.011516 0.156817 0.127055
-0.0363008 0.121261 0.13323
-0.0480694 0.0911827 0.132698
-0.0416347 0.080211 0.120954
-0.0209606 0.0941 0.0961793
0.00737388 0.129873 0.0621289
0.0379707 0.17524 0.0243506
0.065611 0.216048 -0.00875061
0.0856281 0.24115 -0.030069
0.0958644 0.247958 -0.0371759
0.0968551 0.237273 -0.0340316
0.09065 0.216727 -0.0285864
0.0783986 0.196154 -0.0281681
0.0625635 0.174003 -0.0324965
0.0448478 0.144745 -0.0382194
0.0279792 0.106815 -0.0432741
0.0186875 0.0660124 -0.0430331
0.107867 0.201817 0.0360218
0.099953 0.254423 0.0566068
0.0777833 0.280532 0.0758452
0.0454062 0.271078 0.0918339
0.00933748 0.231788 0.0984564
-0.0203137 0.173921 0.0977702
-0.0361005 0.118054 0.0859164
-0.0314234 0.0807374 0.0615011
-0.00720784 0.0703121 0.026461
0.0312772 0.0877881 -0.0129632
0.0784458 0.122151 -0.0499611
0.127689 0.160134 -0.0774999
0.171396 0.190209 -0.0917006
0.204159 0.207854 -0.0934022
0.223963 0.210919 -0.0881908
0.231202 0.203758 -0.084405
0.22573 0.193211 -0.0875794
0.209155 0.177352 -0.0932341
0.183583 0.151329 -0.0972786
0.152482 0.11475 -0.0967587
0.124452 0.0734283 -0.0866522
0.114738 0.250423 0.0147842
0.112199 0.320268 0.0270017
0.0948166 0.35699 0.0377307
0.066401 0.348854 0.0435935
0.0334872 0.300492 0.0384679
0.0059614 0.225065 0.0214481
-0.00728819 0.146931 -0.0101039
0.00066924 0.0847845 -0.0529023
0.0310129 0.0493918 -0.0996014
0.079826 0.0460406 -0.140346
0.141184 0.0659039 -0.166611
0.207111 0.0976112 -0.173299
0.267639 0.13024 -0.161376
0.314738 0.158104 -0.137518
0.344608 0.176693 -0.111866
0.356488 0.186793 -0.0953217
0.350074 0.191403 -0.0933488
0.327381 0.18714 -0.0991628
0.29142 0.169136 -0.106243
0.246707 0.136979 -0.108722
0.202294 0.0955134 -0.0997409
0.105058 0.280728 -0.00784174
0.108738 0.36406 -0.00652938
0.0998898 0.41062 -0.00774913
0.0814995 0.406526 -0.0162829
0.0587738 0.354727 -0.0367346
0.0407918 0.269009 -0.0716311
0.0357847 0.175647 -0.121995
0.0505518 0.0942048 -0.180278
0.087158 0.0373096 -0.234335
0.143042 0.013959 -0.271184
0.212062 0.0179346 -0.281152
0.285426 0.0404279 -0.261206
0.351985 0.0720094 -0.216987
0.402356 0.106782 -0.161047
0.431887 0.13873 -0.108341
0.439783 0.165659 -0.0727753
0.426466 0.186636 -0.0607645
0.395217 0.196215 -0.0652376
0.349517 0.188724 -0.0770641
0.295134 0.163125 -0.0866157
0.240226 0.122748 -0.0853293
0.0816765 0.291028 -0.032003
0.092043 0.381702 -0.0428136
0.0947135 0.43509 -0.0563943
0.0908766 0.436185 -0.0779493
0.0841289 0.386304 -0.110559
0.0804475 0.298712 -0.158134
0.0866095 0.199567 -0.220219
0.107502 0.107716 -0.286351
0.146198 0.0364701 -0.341312
0.201356 -0.00283369 -0.370113
0.26745 -0.0139871 -0.362627
0.336127 -0.00298321 -0.317628
0.396798 0.0229976 -0.244334
0.440372 0.0589258 -0.159783
0.462338 0.0984815 -0.0827002
0.462407 0.137728 -0.029289
0.441901 0.172543 -0.00686007
0.40482 0.195012 -0.00989472
0.354733 0.198712 -0.0261647
0.297714 0.18144 -0.0442424
0.240601 0.144731 -0.0537034
0.0491634 0.281844 -0.0514957
0.0644203 0.372754 -0.0718745
0.0776079 0.428738 -0.0940511
0.0886521 0.43495 -0.122746
0.0983246 0.391315 -0.16027
0.10926 0.309604 -0.211428
0.125499 0.213966 -0.274963
0.14998 0.121177 -0.339524
0.186316 0.0440231 -0.389093
0.234125 -0.00532979 -0.408374
0.289086 -0.0287118 -0.387605
0.344259 -0.0294671 -0.326817
0.390896 -0.0122402 -0.236968
0.421591 0.0194772 -0.136973
0.432494 0.0600997 -0.0471964
0.424212 0.105053 0.0157684
0.398793 0.148329 0.0441947
0.360592 0.180123 0.0419771
0.312807 0.193202 0.0223049
0.260735 0.184347 -0.00227647
0.209419 0.153648 -0.0209066
0.0176242 0.257024 -0.0621882
0.035092 0.341148 -0.0870155
0.0551484 0.395216 -0.1112
0.0764713 0.405585 -0.139582
0.0976208 0.370986 -0.173558
0.118326 0.300995 -0.218036
0.140033 0.216412 -0.272133
0.163601 0.131166 -0.325667
0.192509 0.0565476 -0.364439
0.227259 0.0035327 -0.374871
0.265279 -0.0277304 -0.348537
0.301823 -0.0384084 -0.285996
0.331005 -0.0308501 -0.197684
0.347545 -0.00706021 -0.101114
0.349118 0.0289773 -0.0150932
0.336408 0.0728864 0.0453286
0.311533 0.117803 0.0734085
0.278434 0.153222 0.0716794
0.239683 0.171643 0.0517953
0.199123 0.16915 0.0255662
0.159976 0.145583 0.00346887
-0.148831 -0.117443 0.130817
-0.165639 -0.118451 0.150283
-0.173108 -0.0925836 0.144382
-0.171893 -0.0452799 0.115734
-0.163899 0.0137255 0.0747907
-0.15035 0.0774369 0.0350934
-0.13422 0.130841 0.0138261
-0.117317 0.172045 0.0124902
-0.101323 0.204095 0.0249923
-0.0852068 0.229433 0.0446371
-0.0687591 0.250363 0.0605456
-0.0517438 0.266336 0.0670308
-0.0335049 0.274913 0.0647508
-0.0145585 0.274092 0.0589966
0.0025195 0.262345 0.0562072
0.0146689 0.240512 0.06257
0.0218732 0.212718 0.0781302
0.0246715 0.179368 0.0939422
0.0233415 0.141539 0.102295
0.0187661 0.101147 0.0998509
0.0118772 0.0625635 0.0843957
-0.163976 -0.135821 0.149273
-0.182415 -0.138587 0.16751
-0.189875 -0.108902 0.155313
-0.186021 -0.0545081 0.118485
-0.172671 0.0123552 0.0714036
-0.152451 0.0816389 0.0297055
-0.129109 0.135322 0.0139227
-0.105052 0.173142 0.0242833
-0.0817406 0.20136 0.0508825
-0.0582073 0.225043 0.0836229
-0.0334844 0.248512 0.108881
-0.0073825 0.271397 0.119739
0.0205398 0.28974 0.117103
0.0490592 0.299475 0.106923
0.0741218 0.297108 0.0977041
0.0917055 0.282225 0.0964019
0.100632 0.258448 0.103481
0.101035 0.224643 0.109857
0.0929185 0.183347 0.109235
0.078137 0.136411 0.099852
0.0599624 0.0900996 0.080132
-0.151439 -0.151579 0.148347
-0.165643 -0.155759 0.159987
-0.169175 -0.12317 0.140455
-0.160996 -0.0633973 0.098122
-0.143249 0.00798249 0.0504648
-0.118598 0.0782171 0.0144634
-0.0904895 0.126989 0.010641
-0.0618524 0.155759 0.0369918
-0.0343535 0.174762 0.0803578
-0.00593364 0.193146 0.127417
0.0244452 0.217854 0.162696
0.0574407 0.248933 0.178708
0.0930513 0.280686 0.176431
0.129497 0.30627 0.161686
0.161594 0.319661 0.143685
0.183936 0.318551 0.129281
0.194352 0.305078 0.119494
0.192109 0.275765 0.108169
0.176779 0.234675 0.0918422
0.150964 0.183433 0.0723579
0.120518 0.129273 0.050122
-0.117304 -0.164919 0.132675
-0.123599 -0.16923 0.135711
-0.120579 -0.134113 0.109258
-0.108025 -0.0714187 0.0644679
-0.0879588 0.000748013 0.0191542
-0.062653 0.0675136 -0.00704499
-0.0350048 0.106821 0.00328168
-0.00684697 0.122875 0.0453573
0.0200609 0.129802 0.10343
0.0482776 0.140886 0.162761
0.079393 0.165693 0.206967
0.114694 0.204776 0.228751
0.153802 0.250919 0.228959
0.19449 0.294837 0.212572
0.231206 0.328091 0.187274
0.257825 0.346527 0.158427
0.270527 0.350015 0.127683
0.267512 0.331825 0.0948454
0.247923 0.296512 0.0585367
0.214746 0.244134 0.0258978
0.175201 0.182289 0.00124793
-0.0732836 -0.176865 0.111865
-0.0707085 -0.179995 0.106998
-0.061598 -0.143036 0.0752629
-0.0465044 -0.0795212 0.0287386
-0.0279601 -0.0102023 -0.0121644
-0.00677046 0.0501942 -0.0289418
0.0152113 0.0781885 -0.00800105
0.0372236 0.0808111 0.0434614
0.0578927 0.0759863 0.109376
0.0801782 0.0800113 0.175331
0.106173 0.104473 0.225796
0.137698 0.1503 0.254538
0.174276 0.209281 0.261838
0.213627 0.27065 0.250621
0.250715 0.324328 0.224926
0.279616 0.364913 0.185955
0.295366 0.389634 0.135618
0.294723 0.388219 0.0808981
0.276659 0.363463 0.0236766
0.243397 0.313396 -0.0241472
0.202325 0.244658 -0.0528646
-0.0315896 -0.187542 0.09205
-0.0231614 -0.189684 0.0807013
-0.0112855 -0.151742 0.0459909
0.00310824 -0.0890857 0.000597587
0.0175126 -0.0238841 -0.0357171
0.0315039 0.0292815 -0.0466781
0.0442993 0.0469806 -0.0229597
0.0561396 0.0386893 0.0277926
0.0665033 0.0251856 0.0916867
0.0781876 0.0243584 0.156278
0.0936473 0.0488401 0.209323
0.115114 0.0995938 0.246577
0.142542 0.167889 0.267406
0.174135 0.242652 0.271038
0.206245 0.313365 0.256004
0.233806 0.374236 0.217079
0.251392 0.420425 0.154466
0.2552 0.437825 0.0814738
0.2438 0.426518 0.00432012
0.218428 0.381706 -0.0594248
0.185022 0.307913 -0.0945249
-0.00839757 -0.195616 0.084672
5.08542e-05 -0.197633 0.0712861
0.00980641 -0.159876 0.0358964
0.01957 -0.0997634 -0.00874366
0.0273882 -0.0392894 -0.044699
0.0329587 0.00763185 -0.0584901
0.0362674 0.0191132 -0.0421828
0.0383364 0.00633367 -0.0022022
0.03824 -0.00942412 0.0504869
0.0379349 -0.0103922 0.107054
0.039802 0.0156223 0.15961
0.0462734 0.0689948 0.206341
0.0584467 0.140981 0.245836
0.0757452 0.221639 0.273232
0.0968104 0.301607 0.280284
0.118135 0.376064 0.254845
0.134987 0.439172 0.193589
0.143778 0.473602 0.112043
0.143081 0.475798 0.0205569
0.132843 0.437832 -0.0582466
0.11619 0.361211 -0.104338
-0.00427038 -0.19798 0.0874851
-0.00033677 -0.201208 0.0760733
0.00394979 -0.165868 0.0422723
0.00798468 -0.109945 -0.00190171
0.0101684 -0.0543991 -0.0413456
0.0100696 -0.0117427 -0.0640291
0.00807187 -0.000746482 -0.0613825
0.00429654 -0.0105202 -0.0381478
-0.00296544 -0.020616 -0.00209658
-0.0136399 -0.0157236 0.0423049
-0.0258968 0.0141396 0.0917777
-0.0373647 0.0679372 0.147162
-0.0452467 0.137287 0.206786
-0.0482813 0.214698 0.262244
-0.0449419 0.293473 0.298651
-0.0363656 0.371455 0.297363
-0.025505 0.443236 0.250571
-0.0145076 0.489284 0.171717
-0.00452268 0.502106 0.0733438
0.00339583 0.470766 -0.0179447
0.00871156 0.394011 -0.0784063
-0.0118476 -0.189433 0.0931946
-0.0142227 -0.194103 0.086007
-0.0160952 -0.163715 0.0558117
-0.0166346 -0.114553 0.0128023
-0.0166286 -0.0650346 -0.0302559
-0.0170743 -0.0251234 -0.061788
-0.0183183 -0.0100759 -0.0727169
-0.0214989 -0.00987209 -0.0662281
-0.0300467 -0.00674881 -0.047197
-0.0466595 0.00995167 -0.0160568
-0.0706182 0.0461878 0.0279844
-0.0998878 0.0986445 0.0883456
-0.129803 0.1595 0.163911
-0.156837 0.22465 0.244121
-0.176334 0.291256 0.309175
-0.186488 0.361221 0.335594
-0.18758 0.431295 0.310897
-0.179415 0.481074 0.243505
-0.162578 0.499493 0.146731
-0.13873 0.473024 0.0481795
-0.111776 0.398386 -0.0266058
-0.0224862 -0.164151 0.097352
-0.0315216 -0.169683 0.0953037
-0.03881 -0.145497 0.0705559
-0.0422754 -0.105693 0.0316105
-0.0417229 -0.0642812 -0.0113391
-0.0384526 -0.0278005 -0.0469926
-0.0338332 -0.00726667 -0.0661335
-0.0304711 0.00613133 -0.0713261
-0.0341041 0.0263694 -0.0656999
-0.0505959 0.0582402 -0.0467963
-0.080823 0.102457 -0.0109708
-0.123381 0.152758 0.0474926
-0.172109 0.201687 0.129076
-0.221276 0.248597 0.223102
-0.263459 0.294757 0.307587
-0.29389 0.346767 0.356847
-0.310044 0.4049 0.354734
-0.309075 0.449453 0.302872
-0.290921 0.46698 0.214552
-0.257343 0.442467 0.11603
-0.214297 0.371919 0.0320029
-0.0252337 -0.118654 0.0941033
-0.0392894 -0.12229 0.0975835
-0.0507015 -0.104521 0.0807365
-0.0564164 -0.076243 0.0502691
-0.0550648 -0.0459963 0.0138696
-0.0474707 -0.0161988 -0.0173167
-0.0356209 0.00722452 -0.0354701
-0.0231066 0.0322998 -0.0439046
-0.0179033 0.0689097 -0.0455689
-0.0288012 0.115902 -0.0368682
-0.0584723 0.168255 -0.0128085
-0.106403 0.216424 0.0342077
-0.165851 0.252895 0.107162
-0.229572 0.279841 0.197572
-0.288295 0.302024 0.284716
-0.334892 0.330512 0.343878
-0.364682 0.369687 0.357355
-0.372644 0.401912 0.320809
-0.358166 0.41268 0.246417
-0.322718 0.386934 0.15667
-0.272546 0.321379 0.0731295
-0.0143926 -0.0523679 0.0825931
-0.0314813 -0.0498257 0.0917047
-0.0466265 -0.0366749 0.0852071
-0.0561041 -0.0208108 0.0679264
-0.0571035 -0.00509265 0.0449271
-0.0489135 0.0125633 0.0267111
-0.0331053 0.0323295 0.0179949
-0.0131649 0.0625243 0.0136426
0.00151326 0.109606 0.00969445
5.23328e-05 0.167664 0.00939085
-0.0219122 0.226379 0.0179284
-0.0649924 0.273014 0.0442719
-0.123185 0.299448 0.0942195
-0.188968 0.309421 0.163154
-0.25257 0.309805 0.234597
-0.305728 0.314967 0.287544
-0.342856 0.333091 0.305257
-0.357868 0.349446 0.280335
-0.349834 0.349636 0.223078
-0.319729 0.319986 0.150455
-0.272292 0.259065 0.0793412
0.00995603 0.0307756 0.0657399
-0.00880869 0.0439349 0.0803407
-0.0286206 0.0556487 0.0855273
-0.0452756 0.0594912 0.0840922
-0.054204 0.0576904 0.0781544
-0.0521287 0.0568141 0.0767838
-0.0388711 0.0640495 0.0806682
-0.0163859 0.0893526 0.0827141
0.00588849 0.137155 0.0778229
0.0161234 0.198975 0.0683671
0.00855195 0.260452 0.0592423
-0.0188309 0.306248 0.0601105
-0.0622365 0.327164 0.0790202
-0.115456 0.326981 0.115553
-0.169775 0.312848 0.158812
-0.217268 0.300521 0.192873
-0.252864 0.300821 0.20405
-0.270715 0.302101 0.185696
-0.26978 0.290891 0.146011
-0.250444 0.256043 0.0959048
-0.214517 0.198846 0.0471961
0.0434747 0.122608 0.0473245
0.0242439 0.151428 0.0662573
-0.000972188 0.165123 0.0816221
-0.027613 0.158802 0.0939572
-0.0492367 0.137864 0.102393
-0.0593455 0.112805 0.114033
-0.0548451 0.0985149 0.125944
-0.0349515 0.107778 0.130291
-0.00763478 0.144802 0.121926
0.0155015 0.201251 0.102875
0.0276167 0.260567 0.0778566
0.0249925 0.305782 0.0564044
0.00789464 0.326422 0.0473372
-0.0203279 0.324891 0.0531001
-0.0534385 0.306762 0.0675594
-0.0851266 0.28698 0.079428
-0.111867 0.277126 0.0789438
-0.128975 0.268096 0.0632632
-0.135349 0.247826 0.0390499
-0.13061 0.208508 0.0121402
-0.112996 0.153308 -0.00997089
0.0768143 0.214498 0.0288974
0.0588424 0.26329 0.0491242
0.029229 0.283663 0.0706349
-0.0063512 0.269896 0.0912555
-0.0399305 0.230446 0.10702
-0.0626981 0.178253 0.122587
-0.0689555 0.136051 0.132881
-0.0541814 0.120076 0.131375
-0.0238297 0.135864 0.114881
0.0116743 0.177684 0.0864929
0.0449023 0.228747 0.0514301
0.0703786 0.271797 0.0183019
0.0843269 0.295396 -0.00540839
0.0863852 0.299869 -0.0171534
0.0795313 0.288011 -0.0208684
0.0677571 0.272002 -0.0251389
0.053027 0.262271 -0.0361776
0.0381722 0.250799 -0.0513162
0.0241939 0.226959 -0.0644384
0.0126165 0.18544 -0.0728602
0.0088329 0.131188 -0.0714573
0.100987 0.295357 0.00979698
0.0875068 0.366419 0.0272369
0.0586845 0.398261 0.0476438
0.0203954 0.381974 0.0671776
-0.0191714 0.327105 0.0793954
-0.0491197 0.24919 0.0859031
-0.0614853 0.177518 0.0815568
-0.0501236 0.131602 0.0637567
-0.0166638 0.119251 0.0339117
0.030185 0.139068 -0.00187123
0.0827471 0.175773 -0.0368278
0.133941 0.213261 -0.063994
0.176224 0.239895 -0.0796881
0.205462 0.253932 -0.0850241
0.221323 0.255096 -0.0857307
0.22601 0.251878 -0.0906698
0.219629 0.251339 -0.104111
0.204044 0.245626 -0.118573
0.180594 0.224724 -0.127101
0.151801 0.184866 -0.126851
0.126159 0.131334 -0.112654
0.112898 0.358022 -0.00898018
0.10738 0.45067 0.00104606
0.0859698 0.495777 0.0130575
0.0534808 0.481531 0.0214087
0.0177608 0.416292 0.0187909
-0.0102657 0.317609 0.00401606
-0.0210109 0.219424 -0.0263004
-0.00755268 0.143856 -0.0687686
0.0307949 0.101182 -0.11514
0.087707 0.0950801 -0.154687
0.155445 0.113064 -0.178333
0.225564 0.141384 -0.18129
0.287625 0.16916 -0.165625
0.334385 0.193124 -0.139412
0.363124 0.210492 -0.113981
0.374333 0.225218 -0.101223
0.367664 0.24011 -0.105779
0.345215 0.246306 -0.117933
0.309174 0.233995 -0.128172
0.263502 0.199703 -0.130506
0.217943 0.147758 -0.117763
0.108165 0.396505 -0.0266993
0.112688 0.506096 -0.0267297
0.104322 0.563647 -0.027263
0.0859248 0.554815 -0.0354783
0.0633281 0.485793 -0.0575298
0.0464717 0.374584 -0.0961588
0.044213 0.257436 -0.152367
0.0635542 0.157732 -0.217132
0.106267 0.0879469 -0.275922
0.168647 0.0564883 -0.313753
0.243256 0.0543298 -0.319765
0.320996 0.0708512 -0.291409
0.390015 0.0967846 -0.236321
0.441333 0.128156 -0.169847
0.470924 0.160424 -0.109368
0.478758 0.193423 -0.0706113
0.464972 0.225558 -0.0600554
0.432772 0.246309 -0.0682974
0.384886 0.245499 -0.0831007
0.326748 0.21928 -0.093874
0.267745 0.170341 -0.0914329
0.0871879 0.407684 -0.0446668
0.102661 0.526137 -0.0558687
0.111222 0.592287 -0.0693756
0.112916 0.590179 -0.0927969
0.11099 0.523752 -0.130994
0.11177 0.40996 -0.187862
0.122212 0.284794 -0.262239
0.147329 0.171085 -0.340985
0.190119 0.0824081 -0.405184
0.249292 0.0305288 -0.436805
0.318695 0.00978172 -0.423956
0.389962 0.0129653 -0.365976
0.451891 0.0331433 -0.274783
0.495637 0.0666704 -0.171457
0.51709 0.108341 -0.0783249
0.516447 0.155258 -0.0144319
0.494583 0.20213 0.0119489
0.45537 0.236352 0.00767731
0.40162 0.247684 -0.0118838
0.339157 0.231364 -0.0337635
0.276292 0.188124 -0.0462577
0.0536651 0.391896 -0.0572889
0.0773026 0.509647 -0.0770686
0.100981 0.578777 -0.0994773
0.122692 0.58318 -0.131439
0.141932 0.524667 -0.177041
0.161019 0.41792 -0.241073
0.183507 0.296229 -0.320959
0.211978 0.180194 -0.401995
0.250545 0.0831911 -0.463686
0.299634 0.0185962 -0.4871
0.354969 -0.0164537 -0.460339
0.409915 -0.0259669 -0.383974
0.45542 -0.0142849 -0.271967
0.4844 0.0160149 -0.147877
0.493262 0.060154 -0.0364951
0.482964 0.113723 0.0421383
0.455267 0.169359 0.0786197
0.414188 0.212904 0.077287
0.362282 0.234114 0.0539731
0.304615 0.227573 0.0232122
0.2474 0.192313 -0.00235435
0.0184594 0.353684 -0.0616032
0.0455159 0.461824 -0.0848791
0.0781288 0.528408 -0.109119
0.112784 0.538261 -0.140952
0.145983 0.491195 -0.183324
0.176751 0.398803 -0.241191
0.205662 0.289945 -0.312099
0.233022 0.182044 -0.382459
0.262956 0.0872333 -0.433754
0.297155 0.0182074 -0.448825
0.333489 -0.0252779 -0.41714
0.367666 -0.0446195 -0.33969
0.393834 -0.0418466 -0.229664
0.406977 -0.0183732 -0.108927
0.405152 0.022272 -0.000679258
0.389267 0.0752121 0.0766089
0.361349 0.132091 0.114331
0.325083 0.178527 0.114765
0.282703 0.204856 0.0913726
0.237632 0.205326 0.0581067
0.193797 0.178737 0.0271664
-0.162294 -0.0979337 0.151335
-0.178808 -0.0906464 0.165972
-0.184454 -0.0573114 0.148971
-0.180931 -0.00612763 0.106496
-0.170837 0.0515007 0.0539165
-0.156333 0.107662 0.00936144
-0.140785 0.148135 -0.00806498
-0.125974 0.173248 0.000470977
-0.112282 0.188903 0.023679
-0.0975328 0.199718 0.0499316
-0.0809778 0.209085 0.0652945
-0.0620191 0.216766 0.0641201
-0.0400303 0.220401 0.0499976
-0.0160336 0.218556 0.03278
0.00656654 0.209891 0.0228932
0.023445 0.195639 0.0294485
0.0339842 0.179946 0.0522291
0.0382468 0.160896 0.0794317
0.0364477 0.135941 0.0999019
0.0298878 0.104658 0.107226
0.0194703 0.0702153 0.0969992
-0.175412 -0.104603 0.168778
-0.192083 -0.0954693 0.180496
-0.196234 -0.056024 0.155785
-0.188955 0.00266453 0.104696
-0.173117 0.0662864 0.0471648
-0.152286 0.123891 0.00334614
-0.130691 0.158942 -0.00448578
-0.11022 0.174522 0.0200031
-0.0905515 0.180941 0.0605692
-0.0689171 0.186367 0.101151
-0.0435418 0.196371 0.124902
-0.0138899 0.210657 0.125429
0.0201585 0.224877 0.107473
0.0563019 0.235175 0.0824561
0.0891639 0.237828 0.0637315
0.112854 0.232756 0.0617132
0.125352 0.223523 0.0762843
0.12636 0.206311 0.0948699
0.116055 0.17971 0.107877
0.0971027 0.142807 0.109885
0.0733795 0.100462 0.0966076
-0.155636 -0.107457 0.16246
-0.166391 -0.0956257 0.1668
-0.165573 -0.0506958 0.135286
-0.153833 0.013662 0.081137
-0.134522 0.0794483 0.0269688
-0.111057 0.133175 -0.00631242
-0.0869895 0.156996 0.00262609
-0.0641169 0.156849 0.0467938
-0.0417438 0.14833 0.105942
-0.0153364 0.144699 0.160554
0.0170662 0.154403 0.192336
0.0563993 0.177259 0.195097
0.101854 0.206554 0.174416
0.149803 0.234985 0.141997
0.193032 0.255838 0.112331
0.223467 0.267014 0.095849
0.237967 0.270381 0.0925406
0.235328 0.25934 0.0924873
0.215489 0.234057 0.0896604
0.18234 0.193017 0.0822744
0.143213 0.142189 0.0676108
-0.110721 -0.108607 0.140079
-0.111801 -0.0929448 0.136496
-0.103838 -0.0430378 0.100904
-0.0883948 0.0244883 0.0487249
-0.0687906 0.0885541 0.0022562
-0.0477074 0.134071 -0.0156175
-0.0274666 0.142245 0.0116699
-0.00790025 0.123147 0.0735562
0.0123052 0.097351 0.14694
0.0384702 0.0832454 0.211572
0.073318 0.0920881 0.249106
0.118331 0.123866 0.25451
0.17178 0.16969 0.233805
0.228741 0.219061 0.197826
0.280953 0.262343 0.15939
0.318642 0.295452 0.127071
0.336678 0.317812 0.100923
0.332818 0.318965 0.0772587
0.306507 0.299961 0.0529502
0.262471 0.25764 0.032004
0.210575 0.198375 0.015683
-0.0540728 -0.111016 0.113728
-0.0447336 -0.0907907 0.104415
-0.030408 -0.0369495 0.0678822
-0.0137061 0.0315288 0.0194565
0.00174851 0.0904749 -0.0169065
0.0151922 0.125545 -0.0205807
0.0262577 0.117254 0.0195744
0.0369611 0.0796517 0.0900871
0.049378 0.0380689 0.16821
0.0695163 0.01469 0.235365
0.100792 0.0228797 0.275322
0.145186 0.0626743 0.285113
0.20042 0.123612 0.270421
0.260864 0.193023 0.239442
0.318087 0.25917 0.200573
0.361577 0.316674 0.157173
0.384707 0.362104 0.10903
0.383486 0.380714 0.06044
0.357137 0.372454 0.012298
0.309944 0.33216 -0.0257435
0.252893 0.265175 -0.0461341
-0.000839095 -0.116216 0.0919206
0.0160412 -0.0924508 0.0791142
0.033951 -0.0359972 0.0444041
0.0496589 0.0316468 0.00282021
0.0595485 0.0845852 -0.0240313
0.0635979 0.109367 -0.0193301
0.0630069 0.0870925 0.022655
0.0613916 0.0351486 0.0883507
0.061875 -0.0176293 0.158667
0.0705765 -0.046941 0.218841
0.0915268 -0.0384104 0.257584
0.127299 0.00774343 0.27477
0.175902 0.080122 0.274888
0.231972 0.165247 0.261163
0.287971 0.250694 0.235029