# vtk DataFile Version 2.0
Func
ASCII
DATASET RECTILINEAR_GRID
DIMENSIONS 21 21 21
X_COORDINATES 21 double
-4.7619
-4.28571
-3.80952
-3.33333
-2.85714
-2.38095
-1.90476
-1.42857
-0.952381
-0.47619
0
0.47619
0.952381
1.42857
1.90476
2.38095
2.85714
3.33333
3.80952
4.28571
4.7619
Y_COORDINATES 21 double
-4.7619
-4.28571
-3.80952
-3.33333
-2.85714
-2.38095
-1.90476
-1.42857
-0.952381
-0.47619
0
0.47619
0.952381
1.42857
1.90476
2.38095
2.85714
3.33333
3.80952
4.28571
4.7619
Z_COORDINATES 21 double
-4.7619
-4.28571
-3.80952
-3.33333
-2.85714
-2.38095
-1.90476
-1.42857
-0.952381
-0.47619
0
0.47619
0.952381
1.42857
1.90476
2.38095
2.85714
3.33333
3.80952
4.28571
4.7619
POINT_DATA 9261
SCALARS data double 3
LOOKUP_TABLE default
0.0992891 0.121812 -0.153512
0.130351 0.125146 -0.201574
0.167376 0.102237 -0.239135
0.205841 0.0558796 -0.261239
0.241582 -0.00458229 -0.266787
0.270053 -0.0676362 -0.255696
0.28712 -0.118052 -0.239939
0.289367 -0.150205 -0.224414
0.275395 -0.164448 -0.2115
0.245957 -0.161931 -0.202338
0.204592 -0.145338 -0.192823
0.156026 -0.116609 -0.177409
0.105272 -0.0781732 -0.151461
0.0568176 -0.0344138 -0.113883
0.0139331 0.00884345 -0.0685145
-0.0212437 0.0424601 -0.0224114
-0.0474378 0.060334 0.017235
-0.0637304 0.062575 0.0428554
-0.0705556 0.0531684 0.0532183
-0.0692729 0.0365738 0.0506847
-0.0598057 0.0198618 0.0389492
0.134149 0.144441 -0.158897
0.174597 0.150489 -0.209051
0.221618 0.123587 -0.248594
0.268791 0.0686378 -0.27438
0.310559 -0.00294983 -0.285663
0.342368 -0.0747485 -0.280808
0.359385 -0.127186 -0.272391
0.357895 -0.153575 -0.262829
0.335809 -0.155425 -0.251428
0.29463 -0.135772 -0.236511
0.238798 -0.100471 -0.213171
0.174473 -0.0543646 -0.176923
0.108141 -0.00224539 -0.126422
0.0455355 0.0497591 -0.0656163
-0.00893707 0.0948281 -0.00319018
-0.0521942 0.123404 0.0503245
-0.0823897 0.130293 0.0870765
-0.0984794 0.117281 0.101411
-0.101691 0.0913257 0.0961004
-0.0943927 0.059042 0.0779063
-0.078228 0.0303222 0.0531971
0.162965 0.161796 -0.121575
0.205387 0.168189 -0.162034
0.252927 0.135749 -0.196366
0.298346 0.0716048 -0.223905
0.336339 -0.00979781 -0.244577
0.36309 -0.0867889 -0.255604
0.373866 -0.135509 -0.265843
0.365693 -0.148638 -0.272533
0.336688 -0.12984 -0.26938
0.287893 -0.0857007 -0.250254
0.223943 -0.0264437 -0.209547
0.151248 0.0391609 -0.145659
0.0767275 0.103654 -0.0635107
0.00688694 0.159739 0.0247842
-0.0527167 0.200457 0.103614
-0.098181 0.217396 0.158251
-0.12678 0.207637 0.181283
-0.137518 0.175196 0.172383
-0.132602 0.130177 0.14048
-0.115769 0.0811566 0.0989409
-0.0909212 0.0400222 0.0582186
0.178782 0.170768 -0.0444872
0.214851 0.174441 -0.0655835
0.251846 0.134725 -0.0892165
0.283867 0.0618922 -0.118064
0.307106 -0.0265448 -0.15119
0.319524 -0.104009 -0.186678
0.317918 -0.142583 -0.225375
0.300259 -0.135425 -0.256887
0.265597 -0.0894873 -0.26761
0.214089 -0.016167 -0.246638
0.149655 0.0688647 -0.187808
0.0779185 0.152446 -0.0938917
0.00518325 0.224887 0.0218353
-0.0621939 0.279068 0.137256
-0.117845 0.309353 0.228806
-0.157066 0.310398 0.277473
-0.176651 0.282431 0.27744
-0.175968 0.231371 0.236905
-0.158173 0.169125 0.171918
-0.128678 0.105116 0.103629
-0.0939944 0.0523577 0.0473794
0.17849 0.170465 0.0560426
0.199517 0.16773 0.0591516
0.21516 0.118904 0.0482193
0.222274 0.0377264 0.0185427
0.220768 -0.0543249 -0.0308181
0.210664 -0.127356 -0.0964942
0.191485 -0.149858 -0.169077
0.163109 -0.11665 -0.22909
0.125377 -0.0392852 -0.256166
0.077066 0.0650176 -0.234768
0.0205393 0.174453 -0.158902
-0.040357 0.271525 -0.0368199
-0.100942 0.345296 0.108935
-0.155871 0.390664 0.245958
-0.198455 0.405102 0.343409
-0.223082 0.388213 0.378701
-0.226485 0.343826 0.348934
-0.208883 0.278908 0.27295
-0.17436 0.204693 0.17462
-0.130206 0.130314 0.0822255
-0.0854108 0.0684095 0.0155207
0.155759 0.160083 0.155186
0.155971 0.148529 0.181371
0.144208 0.0899626 0.181328
0.120857 0.00153917 0.147662
0.089569 -0.0911548 0.0795311
0.0537628 -0.155551 -0.0175025
0.0158288 -0.157966 -0.122679
-0.0223346 -0.0959634 -0.208484
-0.0602087 0.0135298 -0.24931
-0.100308 0.147008 -0.225974
-0.142051 0.27648 -0.134405
-0.183794 0.380711 0.0108115
-0.223105 0.448781 0.178083
-0.256386 0.479352 0.326198
-0.277284 0.47462 0.419608
-0.280159 0.440433 0.434326
-0.262162 0.384216 0.371789
-0.224598 0.31262 0.262425
-0.172461 0.23391 0.137147
-0.114608 0.155531 0.0295041
-0.0620022 0.0883066 -0.0378034
0.118077 0.142297 0.223343
0.0975759 0.120956 0.262247
0.0599182 0.0528272 0.265025
0.00907472 -0.0409894 0.223111
-0.0480586 -0.131607 0.137315
-0.105131 -0.184375 0.0166238
-0.157604 -0.165082 -0.109578
-0.20207 -0.0749933 -0.208678
-0.237208 0.0635588 -0.252902
-0.266578 0.220867 -0.22288
-0.291088 0.363395 -0.118461
-0.311068 0.467278 0.0396323
-0.326239 0.523029 0.213274
-0.334863 0.534528 0.356632
-0.331291 0.509919 0.434035
-0.310679 0.461745 0.423626
-0.27109 0.400497 0.332205
-0.215058 0.330928 0.199965
-0.148393 0.256201 0.0619204
-0.0810892 0.180815 -0.0465062
-0.0253156 0.11238 -0.102937
0.0720427 0.119407 0.248766
0.0350547 0.088576 0.287239
-0.0211754 0.012508 0.28367
-0.0903925 -0.0846051 0.230153
-0.163533 -0.170679 0.130897
-0.23224 -0.210328 -0.00139622
-0.291063 -0.170552 -0.132539
-0.335476 -0.0564828 -0.228622
-0.36414 0.104388 -0.263693
-0.381094 0.277147 -0.222288
-0.388289 0.424127 -0.109993
-0.387438 0.520361 0.0474047
-0.379919 0.559083 0.209106
-0.365537 0.550159 0.3302
-0.339689 0.508066 0.380251
-0.298702 0.45173 0.343444
-0.242187 0.393389 0.232365
-0.173822 0.334445 0.0930962
-0.0998853 0.271562 -0.0394007
-0.0308104 0.205501 -0.132376
0.0213293 0.139746 -0.167066
0.0243475 0.0952762 0.231847
-0.0221671 0.0562926 0.25861
-0.0861407 -0.0247888 0.24177
-0.160696 -0.122062 0.176286
-0.236282 -0.201287 0.0706432
-0.303813 -0.227993 -0.0589664
-0.358093 -0.171509 -0.177177
-0.394869 -0.0408349 -0.252979
-0.413298 0.132529 -0.266499
-0.41738 0.310236 -0.209966
-0.409552 0.452582 -0.0959774
-0.392166 0.535219 0.046307
-0.367489 0.554987 0.177827
-0.336255 0.527575 0.260365
-0.295053 0.473173 0.273813
-0.241637 0.415674 0.211923
-0.177048 0.367629 0.09282
-0.105752 0.326043 -0.036648
-0.0342872 0.28057 -0.145815
0.0274377 0.228069 -0.209213
0.0691023 0.167649 -0.215031
-0.0188481 0.0717849 0.18072
-0.066873 0.0272436 0.188294
-0.127231 -0.0554043 0.155487
-0.19375 -0.149334 0.0813149
-0.25793 -0.220001 -0.0210568
-0.311619 -0.235465 -0.132542
-0.351256 -0.168318 -0.220588
-0.373999 -0.0307016 -0.260848
-0.379909 0.143728 -0.242883
-0.372546 0.315612 -0.169392
-0.354183 0.445737 -0.0602937
-0.326938 0.511974 0.0539275
-0.293068 0.514927 0.140056
-0.253513 0.474765 0.171532
-0.206092 0.415639 0.142465
-0.150055 0.36405 0.0587981
-0.0876389 0.331376 -0.0566533
-0.0234891 0.310008 -0.161841
0.0359574 0.283734 -0.234002
0.0822888 0.245901 -0.258574
0.108338 0.192117 -0.233498
-0.0547578 0.0496494 0.114099
-0.0982331 0.0015337 0.101389
-0.146886 -0.0797353 0.0554566
-0.196105 -0.167818 -0.0200517
-0.239464 -0.229462 -0.108089
-0.271112 -0.236766 -0.188314
-0.289975 -0.166215 -0.233723
-0.295318 -0.0319918 -0.229144
-0.288192 0.132244 -0.175483
-0.271523 0.288688 -0.0869831
-0.246998 0.401211 0.00996388
-0.215968 0.451253 0.085731
-0.180054 0.442797 0.116155
-0.139865 0.398376 0.0896276
-0.0944285 0.343619 0.0163823
-0.044397 0.304724 -0.0844313
0.00721504 0.290519 -0.186714
0.0562382 0.289176 -0.258001
0.0967569 0.280859 -0.285961
0.122648 0.256469 -0.26909
0.130809 0.209317 -0.216541
-0.0826554 0.028256 0.0476595
-0.1185 -0.0224199 0.0191617
-0.151986 -0.10089 -0.0324911
-0.180377 -0.182255 -0.0993975
-0.199716 -0.235753 -0.162451
-0.207266 -0.238701 -0.202164
-0.20462 -0.171783 -0.198654
-0.19328 -0.0500132 -0.146957
-0.175002 0.0949968 -0.0593887
-0.152041 0.229237 0.039117
-0.125285 0.321884 0.117544
-0.0951366 0.358897 0.149053
-0.0623115 0.346809 0.12025
-0.026829 0.308061 0.035506
0.0111593 0.266936 -0.0792723
0.049772 0.2463 -0.192488
0.0856835 0.25135 -0.276352
0.11569 0.266975 -0.310844
0.134794 0.272587 -0.294973
0.139574 0.258165 -0.240572
0.131193 0.216526 -0.167907
-0.101998 0.00629127 -0.00996768
-0.129511 -0.0470921 -0.0469584
-0.14825 -0.122824 -0.0950783
-0.157218 -0.197969 -0.1433
-0.154821 -0.24503 -0.172775
-0.141591 -0.247215 -0.16709
-0.121381 -0.189511 -0.114239
-0.0975886 -0.0866233 -0.0190364
-0.0721673 0.0335719 0.0963322
-0.0466754 0.142492 0.198613
-0.0211715 0.216128 0.254661
0.00478446 0.245327 0.241843
0.0313623 0.238078 0.157537
0.0591313 0.214361 0.0207638
0.0870433 0.194474 -0.129446
0.112274 0.195442 -0.251377
0.131601 0.218247 -0.316949
0.143013 0.245832 -0.318842
0.142714 0.259711 -0.266578
0.129906 0.25057 -0.183761
0.109434 0.212662 -0.100122
-0.110639 -0.0163408 -0.0583695
-0.129968 -0.0733388 -0.0967846
-0.136303 -0.147559 -0.133217
-0.129939 -0.218193 -0.155244
-0.111229 -0.26121 -0.146282
-0.0834443 -0.265714 -0.0944624
-0.0519249 -0.220834 0.00382974
-0.0213825 -0.140108 0.13542
0.00648312 -0.0466366 0.270856
0.0308129 0.0372461 0.37169
0.052205 0.0949805 0.405202
0.0716429 0.122128 0.353712
0.0899882 0.127044 0.223853
0.108284 0.125439 0.0461454
0.125045 0.131607 -0.131259
0.136996 0.155074 -0.259896
0.141423 0.192534 -0.312358
0.137489 0.226423 -0.291682
0.122762 0.242621 -0.215703
0.0984899 0.234062 -0.116725
0.0717724 0.197992 -0.0309861
-0.106161 -0.0388017 -0.0986088
-0.117338 -0.100069 -0.13379
-0.113441 -0.174732 -0.154306
-0.0960147 -0.243218 -0.14748
-0.067013 -0.284834 -0.101043
-0.0314472 -0.293837 -0.00862898
0.00466313 -0.263237 0.125699
0.0359399 -0.204787 0.282903
0.0612762 -0.136621 0.429615
0.0806276 -0.074872 0.525643
0.0951026 -0.0288971 0.540653
0.106014 0.00107246 0.461621
0.114737 0.0229987 0.301558
0.122694 0.0474383 0.0979935
0.128507 0.0815742 -0.0965855
0.128991 0.12673 -0.230656
0.122208 0.175453 -0.277797
0.108145 0.210808 -0.247272
0.0856326 0.224319 -0.162008
0.0570315 0.212174 -0.0590331
0.0298581 0.175718 0.0224849
-0.0851065 -0.0581611 -0.13507
-0.087075 -0.123746 -0.166645
-0.0737129 -0.199508 -0.171743
-0.048008 -0.267594 -0.139149
-0.0130343 -0.310556 -0.0610875
0.0253569 -0.325701 0.0631457
0.0611496 -0.309248 0.222104
0.0888296 -0.271323 0.393619
0.107824 -0.225147 0.544058
0.119083 -0.181325 0.634356
0.124077 -0.143013 0.637762
0.124376 -0.107051 0.5449
0.12182 -0.0663847 0.371805
0.118251 -0.0156346 0.158247
0.113049 0.0451808 -0.0435653
0.103738 0.109486 -0.1825
0.0892621 0.166361 -0.232985
0.0699654 0.200063 -0.205496
0.0456098 0.207577 -0.124191
0.0186267 0.18883 -0.0269411
-0.00468178 0.150396 0.0470343
-0.0486901 -0.0730326 -0.169753
-0.0396276 -0.141646 -0.199821
-0.0163315 -0.218406 -0.194011
0.0168277 -0.286748 -0.142886
0.0556656 -0.332429 -0.0432139
0.094585 -0.354114 0.10169
0.127778 -0.350242 0.273306
0.150034 -0.329284 0.448617
0.161121 -0.300635 0.596792
0.162961 -0.27026 0.68203
0.157215 -0.236501 0.681652
0.145646 -0.193749 0.588717
0.130512 -0.136019 0.41915
0.114206 -0.0623719 0.210758
0.0974361 0.0207151 0.0116764
0.0790515 0.100246 -0.130374
0.0588364 0.162431 -0.190421
0.037293 0.193032 -0.175752
0.0147871 0.193334 -0.108394
-0.0072133 0.16722 -0.0239798
-0.0248333 0.125844 0.0413901
-0.00719187 -0.0818026 -0.191663
0.0125649 -0.150848 -0.220486
0.0445625 -0.226908 -0.20896
0.083072 -0.294565 -0.150293
0.123084 -0.342531 -0.0431526
0.160527 -0.369745 0.10659
0.190334 -0.375974 0.276179
0.207471 -0.367876 0.443414
0.211613 -0.352085 0.581876
0.205291 -0.331037 0.660935
0.190096 -0.299829 0.661872
0.167938 -0.251437 0.579251
0.141471 -0.180972 0.426786
0.113772 -0.0908039 0.237378
0.0871648 0.00766094 0.0522256
0.0620792 0.0969403 -0.0868471
0.0389951 0.161394 -0.155925
0.0182186 0.188367 -0.156876
6.91421e-05 0.181956 -0.107985
-0.015353 0.14944 -0.0402985
-0.0272762 0.105272 0.0157722
0.0340929 -0.0838246 -0.195243
0.0620823 -0.149446 -0.223502
0.0995436 -0.221626 -0.211432
0.139842 -0.286697 -0.153939
0.178289 -0.335535 -0.0534233
0.212003 -0.366385 0.0854171
0.236817 -0.379597 0.238573
0.248859 -0.38035 0.386952
0.247322 -0.373151 0.509326
0.234872 -0.35826 0.580931
0.21286 -0.329079 0.586567
0.183266 -0.278045 0.521207
0.148964 -0.201176 0.394891
0.113571 -0.102756 0.233822
0.0807304 0.00286468 0.0710236
0.0522908 0.0957916 -0.0583905
0.0291343 0.159709 -0.13203
0.0110754 0.18336 -0.146441
-0.00187848 0.172074 -0.115655
-0.0110361 0.13533 -0.0640941
-0.0183247 0.089356 -0.0161647
0.0644679 -0.0793768 -0.177049
0.0961765 -0.1379 -0.203735
0.134147 -0.202824 -0.194574
0.172458 -0.262489 -0.145997
0.206735 -0.309374 -0.0614326
0.235125 -0.34107 0.0540809
0.254426 -0.357995 0.179517
0.261589 -0.363973 0.300312
0.255663 -0.361911 0.400991
0.239296 -0.351007 0.462273
0.213437 -0.324249 0.472372
0.180167 -0.274312 0.426172
0.14252 -0.197958 0.329616
0.104374 -0.100116 0.201685
0.0702666 0.00393516 0.0672829
0.0426802 0.094097 -0.0454221
0.0228668 0.154464 -0.116805
0.00984944 0.175145 -0.139547
0.00263453 0.161403 -0.122709
-0.00120103 0.123484 -0.0843762
-0.00496333 0.0777331 -0.0433846
0.0776896 -0.0687012 -0.139624
0.10654 -0.116946 -0.161818
0.138989 -0.17189 -0.157018
0.170643 -0.223434 -0.121924
0.198165 -0.265839 -0.0598206
0.219605 -0.296015 0.0244038
0.232767 -0.313781 0.115549
0.235221 -0.321765 0.204003
0.22674 -0.321894 0.279296
0.209231 -0.312815 0.327408
0.183738 -0.288373 0.339664
0.152192 -0.242335 0.311002
0.11741 -0.172294 0.243888
0.0830697 -0.0831586 0.150657
0.0533859 0.010841 0.0489968
0.0311761 0.0914884 -0.0404135
0.0171485 0.144645 -0.10137
0.00996564 0.161927 -0.125426
0.00791554 0.147804 -0.117526
0.00805748 0.112276 -0.089985
0.0065402 0.0698621 -0.0563168
0.117116 0.138928 -0.199184
0.149415 0.138343 -0.255282
0.18674 0.105621 -0.294485
0.225362 0.0456432 -0.312925
0.261685 -0.030131 -0.310729
0.289878 -0.110241 -0.289366
0.305544 -0.176769 -0.262995
0.304511 -0.223963 -0.238168
0.285447 -0.252432 -0.218001
0.248717 -0.263479 -0.204612
0.198914 -0.258373 -0.19393
0.142481 -0.236673 -0.180164
0.0859352 -0.198163 -0.157886
0.0345837 -0.145311 -0.124942
-0.00805536 -0.0845598 -0.0837612
-0.0406634 -0.0279651 -0.040097
-0.0626957 0.014613 -0.000409707
-0.0741407 0.0394618 0.0272355
-0.0762246 0.0465894 0.0407682
-0.0712248 0.0391472 0.0417866
-0.0599259 0.0253691 0.0327653
0.160186 0.155333 -0.211274
0.204109 0.154163 -0.269816
0.253717 0.114364 -0.310409
0.303216 0.043413 -0.331505
0.347313 -0.0445705 -0.334082
0.379556 -0.133542 -0.318399
0.394532 -0.201282 -0.29956
0.387439 -0.241406 -0.281582
0.356371 -0.256316 -0.264197
0.302589 -0.249642 -0.245923
0.232137 -0.22557 -0.221755
0.153923 -0.186023 -0.186905
0.0769049 -0.132506 -0.139446
0.00833693 -0.0687391 -0.0827816
-0.0467993 -0.00245498 -0.0243418
-0.0863132 0.0533215 0.0265024
-0.109501 0.0887863 0.0626606
-0.116961 0.100913 0.0783069
-0.111605 0.0921897 0.0758436
-0.0974116 0.0681983 0.0615044
-0.0773561 0.0405879 0.0407201
0.196564 0.16404 -0.169649
0.245177 0.159435 -0.216013
0.298188 0.111212 -0.249285
0.348511 0.029503 -0.271125
0.390469 -0.0679763 -0.283709
0.417938 -0.160382 -0.286246
0.425048 -0.221531 -0.289957
0.407782 -0.244997 -0.292955
0.364684 -0.236098 -0.288269
0.297004 -0.202519 -0.268662
0.211832 -0.152668 -0.228024
0.119369 -0.0919548 -0.164547
0.0298577 -0.0240238 -0.0833012
-0.0480425 0.0465511 0.00291255
-0.108062 0.111683 0.0790059
-0.147484 0.159108 0.130829
-0.165196 0.180581 0.151733
-0.162701 0.174334 0.142047
-0.144914 0.145671 0.111362
-0.117922 0.102544 0.0732063
-0.0872181 0.0591614 0.0376892
0.219334 0.163432 -0.0780439
0.264116 0.152559 -0.10014
0.309182 0.0946158 -0.119529
0.348054 0.003343 -0.141907
0.375911 -0.0999339 -0.168846
0.388065 -0.189974 -0.200739
0.380035 -0.23682 -0.239884
0.348749 -0.2352 -0.275494
0.294104 -0.194436 -0.291347
0.217306 -0.12759 -0.274244
0.125621 -0.0485272 -0.216795
0.0294169 0.0331226 -0.121841
-0.0610651 0.111738 -0.00396213
-0.136925 0.183042 0.112365
-0.191205 0.240066 0.202918
-0.220717 0.273576 0.248455
-0.224609 0.277933 0.243936
-0.205647 0.252503 0.199578
-0.170759 0.204296 0.133316
-0.128186 0.142605 0.0673147
-0.0860785 0.083159 0.017493
0.224157 0.154798 0.0442374
0.255637 0.134972 0.0522831
0.281013 0.0662136 0.0488614
0.295774 -0.0335759 0.0258746
0.298026 -0.138952 -0.020424
0.285317 -0.22144 -0.0891913
0.255916 -0.247827 -0.17112
0.208844 -0.214852 -0.244278
0.145379 -0.137179 -0.284034
0.066449 -0.0341687 -0.271266
-0.0214332 0.0739791 -0.197993
-0.109036 0.173138 -0.0729944
-0.18755 0.256343 0.0784549
-0.249088 0.321206 0.219757
-0.286853 0.363718 0.318116
-0.297204 0.379828 0.349742
-0.279971 0.367258 0.312662
-0.23965 0.325936 0.229429
-0.184803 0.262366 0.127004
-0.125796 0.186082 0.0355764
-0.0728064 0.112627 -0.0235889
0.202778 0.137258 0.16622
0.213847 0.107089 0.202724
0.211852 0.0278404 0.212641
0.19534 -0.0787363 0.184854
0.165657 -0.182876 0.115788
0.124068 -0.253612 0.00866807
0.0719398 -0.255722 -0.114099
0.0107655 -0.18887 -0.220946
-0.056941 -0.0736964 -0.280772
-0.130527 0.0638104 -0.269476
-0.204714 0.197 -0.180664
-0.272276 0.307653 -0.0300935
-0.326925 0.388479 0.146473
-0.362901 0.44052 0.301962
-0.374494 0.464387 0.397775
-0.358547 0.46267 0.407891
-0.315971 0.436641 0.334873
-0.252812 0.385681 0.214528
-0.178946 0.313792 0.0822167
-0.106059 0.229305 -0.0257977
-0.0455261 0.14596 -0.0845473
0.163872 0.114284 0.252349
0.153517 0.0739494 0.304427
0.124177 -0.0149015 0.317244
0.0781208 -0.12597 0.278749
0.0196798 -0.226369 0.187573
-0.0463838 -0.283088 0.051312
-0.116143 -0.260295 -0.097758
-0.186229 -0.161511 -0.221963
-0.252671 -0.0130037 -0.28727
-0.315258 0.152851 -0.269063
-0.370083 0.303612 -0.165315
-0.412236 0.417961 0.00116121
-0.438289 0.489526 0.18688
-0.444992 0.52406 0.339187
-0.428094 0.528092 0.418911
-0.385784 0.51127 0.402079
-0.320049 0.478077 0.297073
-0.238206 0.425994 0.150657
-0.150748 0.35462 0.00339047
-0.0699638 0.26976 -0.106222
-0.00747895 0.181681 -0.153328
0.11515 0.0879027 0.288163
0.0868646 0.0386013 0.339522
0.0366452 -0.0575404 0.343411
-0.030585 -0.170818 0.28924
-0.107934 -0.265615 0.180423
-0.188044 -0.307814 0.0292939
-0.265709 -0.262789 -0.126194
-0.335782 -0.13781 -0.246431
-0.394006 0.035683 -0.29946
-0.440514 0.220149 -0.265348
-0.472839 0.37883 -0.149132
-0.488325 0.488843 0.0201353
-0.486286 0.545938 0.195543
-0.46582 0.561224 0.325341
-0.424396 0.547576 0.375997
-0.361626 0.521286 0.330281
-0.280877 0.488753 0.203203
-0.18991 0.444302 0.0478814
-0.0989714 0.382134 -0.0948753
-0.0198104 0.304475 -0.189293
0.036843 0.217174 -0.21454
0.0636501 0.0618626 0.27402
0.0239001 0.0056371 0.310602
-0.0367301 -0.0944231 0.296462
-0.11207 -0.206979 0.225383
-0.194158 -0.294614 0.10646
-0.274169 -0.323777 -0.0432454
-0.346622 -0.26203 -0.183605
-0.406173 -0.120277 -0.277976
-0.449144 0.0662825 -0.301691
-0.475998 0.256973 -0.244274
-0.485693 0.412959 -0.119847
-0.477569 0.511587 0.0378455
-0.453151 0.551613 0.183393
-0.413284 0.549271 0.272657
-0.357064 0.523157 0.283672
-0.285381 0.49459 0.210241
-0.202268 0.470494 0.0739428
-0.115028 0.441121 -0.0716667
-0.0329104 0.394917 -0.190471
0.0339841 0.33028 -0.254904
0.0774293 0.248341 -0.252156
0.0151845 0.0364577 0.219495
-0.0284164 -0.0240248 0.232077
-0.0881094 -0.12452 0.196074
-0.157734 -0.232833 0.110923
-0.229585 -0.31184 -0.0079134
-0.295113 -0.33032 -0.13886
-0.350033 -0.259059 -0.24393
-0.390123 -0.111854 -0.293754
-0.413059 0.0744199 -0.275033
-0.419681 0.258614 -0.190297
-0.410102 0.402593 -0.063479
-0.385059 0.485743 0.0690743
-0.347417 0.510101 0.168081
-0.298925 0.495665 0.202761
-0.240015 0.464927 0.167278
-0.172527 0.441557 0.0696723
-0.100454 0.431487 -0.0626738
-0.0295396 0.420777 -0.182205
0.0326785 0.393376 -0.261696
0.0787332 0.344123 -0.286052
0.104016 0.270552 -0.253945
-0.0277223 0.011473 0.147833
-0.0694556 -0.0517981 0.135092
-0.120106 -0.14989 0.0802507
-0.174329 -0.251428 -0.0110007
-0.225633 -0.321285 -0.117716
-0.26723 -0.332325 -0.215511
-0.29703 -0.259441 -0.271388
-0.312831 -0.118285 -0.266079
-0.314008 0.0549216 -0.19994
-0.301878 0.221307 -0.08991
-0.277463 0.346293 0.0311587
-0.242443 0.412933 0.126723
-0.200256 0.426342 0.167303
-0.152837 0.408219 0.139288
-0.101611 0.382344 0.0552146
-0.0489723 0.371521 -0.061408
0.00185404 0.379238 -0.178904
0.0475621 0.387771 -0.261134
0.0828991 0.378774 -0.292841
0.103653 0.344589 -0.273978
0.10937 0.280521 -0.216486
-0.0648309 -0.0139568 0.0779121
-0.102132 -0.0797184 0.0454949
-0.140521 -0.17436 -0.0193007
-0.175787 -0.268325 -0.105151
-0.203068 -0.329669 -0.187831
-0.218288 -0.336806 -0.24262
-0.221869 -0.269365 -0.243156
-0.213923 -0.143791 -0.181392
-0.195361 0.00645687 -0.071316
-0.168043 0.147083 0.0567934
-0.133659 0.249537 0.163486
-0.0945461 0.301799 0.214331
-0.0541951 0.31149 0.191669
-0.0142865 0.299685 0.100195
0.0230848 0.288462 -0.0297126
0.0552755 0.296433 -0.160029
0.0803602 0.323446 -0.256598
0.0978906 0.348843 -0.297771
0.105232 0.35464 -0.281481
0.101535 0.332306 -0.223092
0.0903446 0.276988 -0.147684
-0.09532 -0.0410178 0.0192452
-0.128017 -0.110076 -0.0237466
-0.154964 -0.201661 -0.0870328
-0.172991 -0.28848 -0.155255
-0.178826 -0.342462 -0.203837
-0.171369 -0.348527 -0.210513
-0.153244 -0.291476 -0.15652
-0.126652 -0.187575 -0.0444719
-0.0935283 -0.0658733 0.100037
-0.0561815 0.0454966 0.236395
-0.0167439 0.12566 0.321873
0.021934 0.16813 0.326049
0.0565902 0.182156 0.243164
0.0859319 0.185991 0.0945926
0.107554 0.197244 -0.0744726
0.118811 0.227688 -0.21435
0.119326 0.272872 -0.290101
0.111399 0.310442 -0.29452
0.0950527 0.325286 -0.237927
0.0723675 0.309762 -0.149238
0.050029 0.261021 -0.064628
-0.115739 -0.0691656 -0.0297013
-0.144295 -0.143072 -0.074517
-0.162451 -0.233153 -0.125885
-0.167723 -0.314517 -0.166911
-0.158067 -0.362971 -0.175213
-0.134895 -0.3701 -0.1329
-0.102311 -0.325994 -0.0298254
-0.0640859 -0.246063 0.122351
-0.022651 -0.154047 0.289729
0.0193972 -0.0712626 0.425346
0.0595819 -0.0102503 0.486691
0.0945753 0.0280058 0.448604
0.121443 0.053496 0.315591
0.139251 0.0800485 0.121968
0.145763 0.118667 -0.0769991
0.138675 0.17263 -0.224123
0.119236 0.233031 -0.284956
0.0919748 0.277134 -0.263676
0.0593562 0.294559 -0.180546
0.0254878 0.280295 -0.0743473
-0.00144178 0.235067 0.0113461
-0.120927 -0.0970755 -0.0722368
-0.144893 -0.17687 -0.113454
-0.156078 -0.267678 -0.147256
-0.152823 -0.345778 -0.156646
-0.134075 -0.390694 -0.124507
-0.102756 -0.399892 -0.0389687
-0.0636112 -0.368768 0.102061
-0.0213791 -0.311332 0.28056
0.0215043 -0.246094 0.458456
0.0625301 -0.187859 0.586891
0.0990547 -0.141206 0.626373
0.127461 -0.102095 0.557066
0.145225 -0.0603993 0.390573
0.151741 -0.00735465 0.168872
0.145414 0.0603126 -0.0483837
0.124605 0.136824 -0.201027
0.0920723 0.208904 -0.25569
0.053571 0.254432 -0.223039
0.0134182 0.268663 -0.129482
-0.0233881 0.250216 -0.0187608
-0.0489135 0.204614 0.0625226
-0.105279 -0.120419 -0.115919
-0.122484 -0.206157 -0.153565
-0.126554 -0.298273 -0.169912
-0.116939 -0.374838 -0.15009
-0.0931284 -0.418612 -0.0826091
-0.0587624 -0.430782 0.0375132
-0.0185875 -0.411186 0.203871
0.0223436 -0.372944 0.395304
0.0615685 -0.329583 0.573919
0.0970635 -0.290338 0.692728
0.126113 -0.253065 0.717035
0.145127 -0.209607 0.631502
0.15215 -0.150145 0.451047
0.147025 -0.0707572 0.2197
0.12934 0.0240901 -0.00394365
0.0986301 0.120185 -0.160969
0.0587355 0.20059 -0.219245
0.0157312 0.244222 -0.190076
-0.0250124 0.251241 -0.10125
-0.0588075 0.224473 0.0032168
-0.0792676 0.175384 0.077331
-0.0684083 -0.137377 -0.163606
-0.0752606 -0.22725 -0.200734
-0.0701422 -0.320149 -0.204483
-0.0537028 -0.395622 -0.162761
-0.026146 -0.43948 -0.0699619
0.00926377 -0.454687 0.0738575
0.0479535 -0.444358 0.25323
0.085022 -0.420528 0.446085
0.117993 -0.393279 0.61858
0.145459 -0.367272 0.728236
0.164666 -0.335325 0.745956
0.172304 -0.286331 0.659734
0.167058 -0.210988 0.484302
0.149427 -0.109322 0.260877
0.12068 0.00737218 0.0426206
0.0819318 0.118415 -0.116455
0.037749 0.203749 -0.185371
-0.00599427 0.243746 -0.171013
-0.0435757 0.242026 -0.0985187
-0.0716713 0.20566 -0.00837881
-0.0864372 0.151167 0.057721
-0.0222386 -0.1455 -0.201003
-0.017526 -0.235887 -0.238392
-0.00298472 -0.327158 -0.235405
0.0193277 -0.400299 -0.18382
0.0486152 -0.443929 -0.0808637
0.0832495 -0.461406 0.0701394
0.119397 -0.45786 0.247717
0.15225 -0.443926 0.430149
0.178936 -0.427375 0.589106
0.198441 -0.409547 0.689012
0.207891 -0.380129 0.7061
0.204502 -0.326424 0.630754
0.187704 -0.239862 0.475312
0.158942 -0.123213 0.275045
0.121379 0.00717898 0.074561
0.0778544 0.126524 -0.0796881
0.0332735 0.212909 -0.158407
-0.00735943 0.248408 -0.161839
-0.0390636 0.238406 -0.110596
-0.0602667 0.193607 -0.0391042
-0.0702011 0.133807 0.0182584
0.0275114 -0.14417 -0.218176
0.0427905 -0.23 -0.256664
0.0650296 -0.315638 -0.253042
0.0909716 -0.384276 -0.201409
0.120098 -0.426648 -0.103974
0.151978 -0.445144 0.0370785
0.183586 -0.44579 0.197586
0.21115 -0.437878 0.358879
0.231244 -0.427476 0.49835
0.242915 -0.41405 0.587904
0.243266 -0.386052 0.608503
0.230275 -0.330452 0.551691
0.204165 -0.239474 0.425914
0.167392 -0.117256 0.258684
0.124704 0.0171384 0.0849271
0.080464 0.137243 -0.0569919
0.0392099 0.220905 -0.140145
0.00450837 0.25179 -0.158675
-0.0200035 0.235675 -0.127956
-0.0346055 0.185345 -0.0743173
-0.0411769 0.121957 -0.02453
0.0670267 -0.133891 -0.208063
0.0889818 -0.210282 -0.245933
0.114729 -0.286202 -0.245423
0.141258 -0.347525 -0.202476
0.168058 -0.38653 -0.120796
0.19552 -0.404437 -0.00343746
0.221474 -0.407173 0.127882
0.242844 -0.402632 0.259025
0.256002 -0.395345 0.373762
0.260361 -0.384094 0.450349
0.253001 -0.357637 0.474327
0.232882 -0.303745 0.437795
0.201085 -0.215577 0.344964
0.160916 -0.0974935 0.215173
0.118214 0.0310133 0.0741603
0.0777998 0.144347 -0.0478037
0.0438753 0.221447 -0.127591
0.018101 0.247865 -0.155291
0.00187246 0.228637 -0.140185
-0.00673672 0.176882 -0.101025
-0.010928 0.113313 -0.0579193
0.086169 -0.11534 -0.170435
0.108293 -0.178452 -0.203184
0.132055 -0.241827 -0.206862
0.155211 -0.293459 -0.177591
0.177433 -0.327558 -0.118913
0.198645 -0.34404 -0.0342857
0.217458 -0.347708 0.0605078
0.23133 -0.344832 0.156329
0.23768 -0.338912 0.242374
0.235731 -0.328308 0.302731
0.22355 -0.303439 0.327018
0.200858 -0.253938 0.30802
0.169267 -0.174258 0.246566
0.132449 -0.0686145 0.15473
0.095927 0.0452281 0.0504739
0.0645125 0.144695 -0.0445347
0.0408607 0.211283 -0.111613
0.0252685 0.232705 -0.140096
0.0172614 0.212839 -0.134394
0.0138696 0.164196 -0.106783
0.0113862 0.104976 -0.0711562
0.108033 0.139503 -0.23764
0.134169 0.134964 -0.299879
0.163674 0.0964417 -0.339588
0.194291 0.0293274 -0.353086
0.223095 -0.0548946 -0.341688
0.245041 -0.145077 -0.308485
0.25589 -0.223796 -0.268871
0.251917 -0.28605 -0.231058
0.230854 -0.332812 -0.199607
0.19289 -0.364221 -0.178584
0.143377 -0.378796 -0.165289
0.0895658 -0.372075 -0.154792
0.0385854 -0.339634 -0.141172
-0.00416217 -0.280784 -0.120412
-0.0360994 -0.20219 -0.0917421
-0.0573114 -0.118765 -0.0577359
-0.0686468 -0.0446932 -0.0226547
-0.0714554 0.0102811 0.00561294
-0.0677977 0.0402654 0.023388
-0.0602034 0.046151 0.0302971
-0.0496371 0.0365181 0.0267347
0.15369 0.145538 -0.257099
0.191983 0.136139 -0.321661
0.234473 0.0876417 -0.361684
0.277057 0.00837276 -0.376275
0.314833 -0.0872933 -0.368143
0.341316 -0.184992 -0.339701
0.351045 -0.264038 -0.307569
0.339159 -0.319585 -0.277406
0.302902 -0.354762 -0.250239
0.2434 -0.371886 -0.226153
0.168249 -0.371369 -0.201327
0.0881056 -0.349741 -0.171732
0.0134316 -0.303024 -0.134918
-0.0477014 -0.230941 -0.0924428
-0.0910977 -0.141683 -0.0482924
-0.1162 -0.0521219 -0.0084607
-0.124386 0.0223846 0.0224049
-0.118529 0.0710975 0.0389177
-0.103308 0.0893928 0.0422475
-0.0835272 0.0804165 0.036388
-0.0626474 0.0566392 0.024588
0.196078 0.141615 -0.214851
0.242063 0.124185 -0.265031
0.291443 0.0645841 -0.295228
0.338479 -0.0256255 -0.308884
0.377132 -0.128658 -0.310475
0.400326 -0.226884 -0.301713
0.401548 -0.297009 -0.295528
0.376493 -0.335062 -0.291055
0.323032 -0.347429 -0.28173
0.242846 -0.340232 -0.260884
0.145676 -0.316922 -0.222955
0.0447161 -0.2761 -0.166682
-0.0472212 -0.214749 -0.0968755
-0.119928 -0.132931 -0.0250939
-0.167712 -0.0394394 0.0366203
-0.189893 0.0485607 0.0771621
-0.18821 0.115901 0.0922663
-0.167501 0.151495 0.0832619
-0.135586 0.152533 0.0593573
-0.100063 0.124611 0.0320834
-0.0669981 0.0835255 0.0093563
0.228176 0.127968 -0.114137
0.275054 0.100313 -0.135836
0.322186 0.0291042 -0.148747
0.363017 -0.0702284 -0.161297
0.391566 -0.176222 -0.178098
0.401295 -0.268553 -0.202502
0.386296 -0.321483 -0.238094
0.343048 -0.332994 -0.274111
0.271261 -0.313569 -0.293135
0.17364 -0.274354 -0.281207
0.0614795 -0.22311 -0.23054
-0.0504659 -0.1615 -0.144338
-0.148376 -0.0877262 -0.0375233
-0.221283 -0.00150695 0.065615
-0.262734 0.0890658 0.142993
-0.27224 0.168793 0.177704
-0.252737 0.223982 0.166904
-0.211297 0.243426 0.12267
-0.158879 0.225543 0.0636522
-0.105678 0.177684 0.010312
-0.0602078 0.117943 -0.0233583
0.244279 0.107665 0.0238105
0.283602 0.0684933 0.0374191
0.317737 -0.0142601 0.043936
0.340525 -0.120826 0.0317254
0.347644 -0.225969 -0.00656543
0.334098 -0.307251 -0.0733366
0.296022 -0.337018 -0.159901
0.231977 -0.315686 -0.242771
0.144034 -0.258841 -0.294407
0.0360137 -0.183459 -0.29345
-0.0801357 -0.102602 -0.230523
-0.189591 -0.0216534 -0.11473
-0.279283 0.0600481 0.0274293
-0.339177 0.144158 0.15819
-0.363233 0.224897 0.245655
-0.351376 0.291329 0.267432
-0.307997 0.332217 0.223537
-0.242787 0.336206 0.139522
-0.168918 0.301398 0.0440536
-0.0988971 0.236136 -0.0339585
-0.0425635 0.158969 -0.0746911
0.235016 0.0809885 0.162992
0.259246 0.030341 0.209783
0.271883 -0.0623677 0.232372
0.268535 -0.173618 0.215327
0.247142 -0.274472 0.151424
0.20581 -0.340937 0.0406416
0.143365 -0.344311 -0.0943481
0.0609693 -0.288029 -0.218985
-0.0369877 -0.193091 -0.297775
-0.145714 -0.0824488 -0.303057
-0.253433 0.0253244 -0.226358
-0.346592 0.121171 -0.083894
-0.414405 0.205108 0.0863619
-0.449295 0.28117 0.2348
-0.446702 0.347342 0.322409
-0.407932 0.398392 0.323686
-0.338988 0.426008 0.243015
-0.251329 0.418173 0.120203
-0.159573 0.371517 -0.00657378