# vtk DataFile Version 2.0
Func
ASCII
DATASET RECTILINEAR_GRID
DIMENSIONS 21 21 21
X_COORDINATES 21 double
-4.7619
-4.28571
-3.80952
-3.33333
-2.85714
-2.38095
-1.90476
-1.42857
-0.952381
-0.47619
0
0.47619
0.952381
1.42857
1.90476
2.38095
2.85714
3.33333
3.80952
4.28571
4.7619
Y_COORDINATES 21 double
-4.7619
-4.28571
-3.80952
-3.33333
-2.85714
-2.38095
-1.90476
-1.42857
-0.952381
-0.47619
0
0.47619
0.952381
1.42857
1.90476
2.38095
2.85714
3.33333
3.80952
4.28571
4.7619
Z_COORDINATES 21 double
-4.7619
-4.28571
-3.80952
-3.33333
-2.85714
-2.38095
-1.90476
-1.42857
-0.952381
-0.47619
0
0.47619
0.952381
1.42857
1.90476
2.38095
2.85714
3.33333
3.80952
4.28571
4.7619
POINT_DATA 9261
SCALARS data double 3
LOOKUP_TABLE default
-0.0822699 -0.0207388 0.194521
-0.119237 -0.0256921 0.245416
-0.161081 -0.0243127 0.26896
-0.208297 -0.0107815 0.258024
-0.258125 0.0125233 0.217588
-0.305617 0.0508092 0.156063
-0.347503 0.097422 0.0863324
-0.37902 0.144583 0.0113698
-0.398445 0.183832 -0.0666335
-0.404841 0.207168 -0.139189
-0.397495 0.212875 -0.20017
-0.376857 0.203394 -0.240626
-0.344531 0.184906 -0.254562
-0.303287 0.165088 -0.24304
-0.2567 0.148974 -0.212955
-0.208764 0.139622 -0.176327
-0.163759 0.136175 -0.145003
-0.124824 0.131068 -0.120207
-0.0932298 0.122731 -0.102515
-0.0685444 0.106854 -0.0860424
-0.0489486 0.0844161 -0.0674606
-0.0809438 -0.0151746 0.303125
-0.128148 -0.018267 0.377332
-0.184509 -0.0135473 0.409811
-0.247841 0.00448834 0.393941
-0.312606 0.0327367 0.337392
-0.371898 0.0761849 0.252425
-0.420994 0.12763 0.160238
-0.453894 0.179385 0.0655612
-0.469365 0.222901 -0.0298663
-0.468904 0.249289 -0.115963
-0.4533 0.256123 -0.186031
-0.424613 0.245024 -0.230012
-0.385542 0.222024 -0.241607
-0.339326 0.195811 -0.223548
-0.28908 0.172714 -0.185852
-0.238367 0.157613 -0.14487
-0.190861 0.1511 -0.115596
-0.149364 0.144902 -0.0979743
-0.114733 0.136837 -0.0910403
-0.0863612 0.120604 -0.0848323
-0.0622627 0.0956502 -0.0724345
-0.0652614 -0.0162317 0.412175
-0.11775 -0.0163456 0.506274
-0.183297 -0.00701796 0.544663
-0.256681 0.0161692 0.521659
-0.329758 0.0487719 0.448408
-0.392894 0.0948494 0.342258
-0.440188 0.147337 0.233008
-0.465377 0.199406 0.127042
-0.469326 0.243724 0.0253502
-0.456721 0.272111 -0.0622337
-0.431074 0.281076 -0.130051
-0.396283 0.270681 -0.168571
-0.355959 0.245753 -0.17245
-0.313168 0.215037 -0.146839
-0.269921 0.186153 -0.104586
-0.226844 0.166098 -0.0655648
-0.186776 0.157291 -0.046789
-0.151215 0.151245 -0.046417
-0.120324 0.145171 -0.0593659
-0.0934059 0.13029 -0.0709084
-0.0687501 0.104678 -0.0708822
-0.0437091 -0.021934 0.502034
-0.0975933 -0.018271 0.608366
-0.166437 -0.00345598 0.646039
-0.24258 0.0244412 0.612645
-0.315194 0.0600913 0.521775
-0.372974 0.105594 0.398117
-0.409449 0.154527 0.27919
-0.418414 0.202167 0.172377
-0.404139 0.243495 0.0768841
-0.375363 0.27207 0.000769918
-0.338552 0.283541 -0.0530939
-0.299451 0.275976 -0.0771954
-0.262284 0.25213 -0.0681749
-0.229358 0.219938 -0.0341991
-0.200643 0.18783 0.00983556
-0.173346 0.164761 0.0412156
-0.148314 0.155132 0.042297
-0.125381 0.150511 0.017094
-0.104285 0.147504 -0.0218236
-0.08386 0.135852 -0.0556129
-0.0625048 0.111718 -0.0705261
-0.0311853 -0.0316302 0.555723
-0.0842438 -0.0234934 0.663375
-0.151446 -0.00277659 0.69214
-0.223068 0.0292705 0.642822
-0.28733 0.0657763 0.534956
-0.331146 0.107353 0.398142
-0.349018 0.147975 0.276627
-0.336064 0.186128 0.17818
-0.300177 0.220212 0.0995927
-0.253971 0.24637 0.0457283
-0.206634 0.259817 0.015344
-0.165362 0.256549 0.0125779
-0.134495 0.236694 0.0379009
-0.115118 0.206574 0.0801418
-0.104523 0.174756 0.122848
-0.0969289 0.151714 0.142121
-0.0907911 0.143562 0.121108
-0.0838529 0.141961 0.0679873
-0.0752374 0.143636 0.0010385
-0.0633674 0.136801 -0.0544545
-0.0473843 0.116239 -0.0820488
-0.0400003 -0.0436112 0.556954
-0.0930486 -0.0315969 0.652664
-0.156869 -0.00515849 0.664091
-0.220802 0.0298485 0.595906
-0.272412 0.0656197 0.471703
-0.298983 0.09989 0.326361
-0.296463 0.127628 0.207926
-0.261642 0.151309 0.124379
-0.20539 0.17373 0.0704186
-0.14337 0.194362 0.0468079
-0.0869542 0.208557 0.0475036
-0.0444204 0.210296 0.0720432
-0.0198959 0.196687 0.117069
-0.0131122 0.171809 0.168606
-0.0186132 0.143781 0.208851
-0.0278822 0.124091 0.214224
-0.037563 0.120305 0.17076
-0.043828 0.124715 0.0921223
-0.0450584 0.13307 0.001491
-0.0399068 0.132894 -0.0717313
-0.0288053 0.117217 -0.107907
-0.0761521 -0.0544987 0.508644
-0.132244 -0.0395685 0.582353
-0.194217 -0.00803945 0.571313
-0.25172 0.0288499 0.483577
-0.292795 0.0627432 0.345541
-0.305764 0.0876532 0.19582
-0.287848 0.0997521 0.0835631
-0.237528 0.10565 0.0165006
-0.16755 0.112826 -0.0124372
-0.0949575 0.124588 -0.00606407
-0.0323508 0.13715 0.0254879
0.0114191 0.142976 0.0774923
0.032572 0.136267 0.142947
0.0324236 0.118623 0.205463
0.0183943 0.0971844 0.245982
0.000828033 0.0838374 0.241286
-0.0159675 0.0870727 0.180685
-0.0275593 0.100148 0.0840438
-0.0317054 0.116826 -0.0221591
-0.0278629 0.124527 -0.105801
-0.0179174 0.114583 -0.144295
-0.130676 -0.0612736 0.416125
-0.19119 -0.0443123 0.460879
-0.252635 -0.00880738 0.425783
-0.305788 0.0294754 0.321555
-0.340221 0.060895 0.176081
-0.346068 0.0757026 0.0293245
-0.321646 0.0707249 -0.0718079
-0.266826 0.0562639 -0.120708
-0.194121 0.0448254 -0.12581
-0.119852 0.043723 -0.0924324
-0.056436 0.0508927 -0.0332483
-0.0126254 0.0581801 0.043934
0.0082298 0.0574718 0.129314
0.00780952 0.047926 0.20471
-0.00582237 0.0352808 0.249903
-0.0222973 0.0309909 0.241779
-0.0369427 0.0438616 0.172248
-0.0454409 0.0678426 0.0661877
-0.0454777 0.0945725 -0.0477707
-0.0372459 0.111064 -0.136137
-0.0239639 0.1072 -0.173981
-0.182705 -0.0626644 0.295517
-0.245646 -0.0440014 0.308667
-0.305845 -0.00550854 0.252829
-0.356222 0.0338919 0.139996
-0.388681 0.0631591 -0.00233414
-0.395617 0.0689843 -0.135639
-0.376022 0.0475183 -0.219192
-0.329908 0.0122505 -0.248388
-0.267471 -0.0197456 -0.232237
-0.202017 -0.0372742 -0.177246
-0.144312 -0.0397444 -0.0965327
-0.102368 -0.034673 0.000794653
-0.0792477 -0.0314318 0.103407
-0.0738932 -0.0329589 0.192065
-0.0794026 -0.0352569 0.245595
-0.0869545 -0.0282917 0.240907
-0.0926038 -0.00378746 0.171364
-0.0923892 0.0321411 0.0637846
-0.0839581 0.0691807 -0.0520246
-0.0677856 0.0941159 -0.142182
-0.0480975 0.0963455 -0.180708
-0.210436 -0.0599212 0.169781
-0.27055 -0.0399397 0.155318
-0.326227 0.0013387 0.087321
-0.373742 0.0426009 -0.0221005
-0.408041 0.0714614 -0.148199
-0.423774 0.0710944 -0.257416
-0.419688 0.0356707 -0.318373
-0.394641 -0.0190042 -0.328978
-0.354534 -0.071958 -0.297724
-0.307626 -0.10834 -0.230629
-0.261722 -0.124055 -0.138738
-0.22358 -0.124726 -0.030173
-0.196312 -0.119826 0.0838123
-0.180555 -0.113882 0.183615
-0.172457 -0.104874 0.24731
-0.166155 -0.0849955 0.251595
-0.159221 -0.0473686 0.189846
-0.1482 0.000769897 0.0874241
-0.130839 0.0472846 -0.0258025
-0.10704 0.0791749 -0.116674
-0.080982 0.0859053 -0.159159
-0.19602 -0.0570289 0.056353
-0.244508 -0.0358805 0.0224344
-0.289521 0.00831726 -0.0464447
-0.331291 0.0530973 -0.13917
-0.368209 0.0843338 -0.235782
-0.396894 0.0818024 -0.31099
-0.414902 0.0364139 -0.345268
-0.418836 -0.0347718 -0.339376
-0.408868 -0.107764 -0.300294
-0.386883 -0.164344 -0.232056
-0.356855 -0.196106 -0.141231
-0.323977 -0.205491 -0.03268
-0.291907 -0.200827 0.0841047
-0.263906 -0.187579 0.189966
-0.240591 -0.16599 0.262424
-0.220039 -0.131262 0.277894
-0.201741 -0.0789471 0.228539
-0.182708 -0.0186594 0.135219
-0.160712 0.0357759 0.0269246
-0.134149 0.0719068 -0.0645861
-0.105914 0.0805713 -0.11422
-0.134786 -0.0582135 -0.0323278
-0.162266 -0.0360265 -0.0754837
-0.189565 0.0118398 -0.133771
-0.220951 0.0624451 -0.197932
-0.258261 0.0993577 -0.254472
-0.299703 0.0991094 -0.289065
-0.34092 0.0483933 -0.295348
-0.375625 -0.0355997 -0.276899
-0.397688 -0.126827 -0.238297
-0.402241 -0.203955 -0.180317
-0.389132 -0.253551 -0.103159
-0.361923 -0.273681 -0.00671051
-0.325303 -0.270286 0.102566
-0.285712 -0.24906 0.206768
-0.248803 -0.212872 0.283121
-0.216975 -0.160674 0.307942
-0.19174 -0.0916583 0.271615
-0.170518 -0.0190832 0.189012
-0.150876 0.0415338 0.0870928
-0.129108 0.0786064 -0.00431606
-0.105786 0.0854698 -0.0616697
-0.0370479 -0.0662831 -0.091835
-0.0367426 -0.042833 -0.134168
-0.0408614 0.00950791 -0.172397
-0.0572207 0.0678416 -0.199782
-0.0906654 0.112942 -0.210409
-0.140633 0.1185 -0.202445
-0.200594 0.0666591 -0.182604
-0.2614 -0.0262326 -0.156823
-0.311089 -0.133002 -0.126585
-0.338735 -0.229483 -0.088446
-0.340446 -0.296871 -0.0352051
-0.318307 -0.328088 0.0389771
-0.278354 -0.325771 0.131177
-0.230158 -0.295236 0.225295
-0.183903 -0.242314 0.298535
-0.145978 -0.170264 0.327506
-0.119647 -0.082929 0.301058
-0.102778 0.00184572 0.2285
-0.0924831 0.0668487 0.133627
-0.0829371 0.101653 0.0439664
-0.0719037 0.103272 -0.0186358
0.0745492 -0.0825172 -0.125611
0.104168 -0.0581859 -0.15909
0.125093 -0.000690421 -0.171356
0.126859 0.0663161 -0.158813
0.102415 0.120758 -0.123334
0.0513267 0.13424 -0.0752673
-0.0181035 0.0846485 -0.0331481
-0.0947548 -0.0133572 -0.00451766
-0.162412 -0.132214 0.0125875
-0.205838 -0.245297 0.0261661
-0.218388 -0.328552 0.0506921
-0.200964 -0.369516 0.0973961
-0.160802 -0.367031 0.166568
-0.109751 -0.325602 0.244044
-0.0608543 -0.254218 0.307214
-0.0233471 -0.160677 0.333538
-0.00160867 -0.0541344 0.311181
0.00597649 0.0424224 0.245713
0.00277805 0.1104 0.157119
-0.00395714 0.141049 0.0705495
-0.00954177 0.133813 0.00629999
0.173583 -0.105158 -0.141804
0.228385 -0.0804396 -0.162554
0.271997 -0.0187198 -0.148171
0.29217 0.0562478 -0.0982168
0.280679 0.119051 -0.0221234
0.236527 0.14063 0.0592894
0.169026 0.0954511 0.11846
0.0894304 -0.00418422 0.14715
0.0158454 -0.131081 0.150615
-0.03455 -0.256786 0.141116
-0.0537819 -0.352646 0.139008
-0.0419157 -0.401039 0.159481
-0.00667565 -0.396817 0.204946
0.0394296 -0.343243 0.262807
0.0828756 -0.25236 0.310917
0.113411 -0.136455 0.32826
0.12697 -0.0101471 0.303538
0.123959 0.0980345 0.241074
0.107636 0.168855 0.157176
0.085745 0.193823 0.0746646
0.064706 0.175237 0.0126927
0.237161 -0.129546 -0.151077
0.308257 -0.105974 -0.159195
0.368115 -0.0419275 -0.121946
0.404482 0.0383316 -0.0418623
0.40896 0.107005 0.0656285
0.379408 0.135144 0.171845
0.324511 0.095285 0.243206
0.254592 -0.00307146 0.271849
0.186446 -0.133784 0.265971
0.136676 -0.267426 0.241262
0.113216 -0.371821 0.221723
0.116687 -0.424927 0.224273
0.140069 -0.417811 0.251718
0.172272 -0.352145 0.292079
0.201922 -0.242548 0.323861
0.220768 -0.105127 0.328081
0.224645 0.0399532 0.295229
0.213283 0.159487 0.230453
0.18921 0.233069 0.147817
0.158735 0.251996 0.0683424
0.128762 0.221083 0.0096263
0.255127 -0.150853 -0.159558
0.33151 -0.129527 -0.157889
0.398971 -0.066097 -0.10435
0.446846 0.0157587 -0.00433648
0.467237 0.0865935 0.122795
0.456796 0.118934 0.2445
0.422071 0.084669 0.324063
0.370612 -0.00955814 0.354677
0.316197 -0.139297 0.346941
0.272468 -0.275142 0.318675
0.246181 -0.382869 0.294904
0.23847 -0.437237 0.29187
0.244165 -0.426147 0.311009
0.255309 -0.349555 0.33991
0.265205 -0.223804 0.357918
0.268578 -0.0682785 0.348396
0.262216 0.092161 0.304329
0.245945 0.220748 0.232641
0.221193 0.295898 0.14731
0.191607 0.309012 0.0679841
0.161788 0.265943 0.0104843
0.230798 -0.163424 -0.163536
0.301392 -0.145225 -0.15563
0.367092 -0.0858174 -0.094783
0.419695 -0.00709864 0.0111877
0.452321 0.0616108 0.142451
0.461264 0.0950811 0.267433
0.449975 0.0662749 0.350005
0.421728 -0.0209493 0.384229
0.38576 -0.144292 0.381421
0.351141 -0.275574 0.359782
0.322655 -0.380434 0.342447
0.30194 -0.432151 0.343131
0.286696 -0.416552 0.361202
0.273393 -0.332046 0.383817
0.261121 -0.195743 0.39208
0.248953 -0.0289656 0.371957
0.235061 0.140236 0.31888
0.219619 0.273007 0.241214
0.201581 0.347435 0.153802
0.181744 0.355016 0.0748045
0.160462 0.302 0.0180524
0.179886 -0.163223 -0.159348
0.235831 -0.148165 -0.15033
0.291237 -0.0957467 -0.0921987
0.340903 -0.0250475 0.00738469
0.380153 0.0366291 0.128441
0.404443 0.0680473 0.244822
0.414084 0.0441872 0.324205
0.408538 -0.0333066 0.36216
0.390961 -0.144967 0.368809
0.365616 -0.265174 0.360858
0.335158 -0.361534 0.35733
0.301827 -0.407693 0.367992
0.266675 -0.388566 0.389807
0.231105 -0.301203 0.409773
0.199748 -0.162345 0.411527
0.176285 0.00654232 0.383884
0.160361 0.176124 0.324856
0.151644 0.307121 0.243637
0.146585 0.378269 0.157254
0.142438 0.38142 0.0808349
0.135253 0.322828 0.0266258
0.120356 -0.14982 -0.145455
0.15825 -0.137479 -0.139009
0.198751 -0.0940287 -0.0911119
0.240352 -0.0351094 -0.0078174
0.280275 0.0162308 0.093582
0.313599 0.0430471 0.191999
0.338063 0.0234565 0.261683
0.349959 -0.0425102 0.299883
0.34694 -0.13863 0.315026
0.329134 -0.242854 0.3207
0.297463 -0.32651 0.331056
0.254732 -0.365338 0.351701
0.205026 -0.344568 0.377668
0.154127 -0.260286 0.396548
0.110527 -0.127776 0.394851
0.0813975 0.032881 0.364335
0.0679357 0.193428 0.305567
0.0690442 0.316095 0.227608
0.0786364 0.381133 0.14743
0.0907892 0.381374 0.0784658
0.0980431 0.322649 0.0303895
0.067644 -0.125327 -0.12065
0.0883228 -0.115459 -0.118143
0.113378 -0.0821104 -0.0847519
0.143995 -0.0360884 -0.0235682
0.179211 0.00430161 0.0523934
0.213778 0.0259466 0.126769
0.24402 0.010529 0.181808
0.26419 -0.0429524 0.215787
0.26947 -0.121742 0.235192
0.257026 -0.207582 0.249605
0.226802 -0.276637 0.268385
0.181952 -0.307955 0.293774
0.12834 -0.288099 0.320144
0.0737628 -0.21306 0.336898
0.0286297 -0.0950876 0.333638
0.000988639 0.0482809 0.305242
-0.00767231 0.191406 0.253542
0.00134043 0.299896 0.186873
0.021527 0.356145 0.120122
0.0449374 0.3543 0.0639175
0.0624424 0.300441 0.026379
-0.120817 -0.0731428 0.232893
-0.162582 -0.0950804 0.289172
-0.20618 -0.105083 0.310902
-0.253253 -0.0967603 0.291363
-0.302773 -0.0717099 0.238486
-0.351022 -0.0247595 0.163111
-0.395987 0.0344319 0.0803485
-0.433731 0.0965752 -0.00705858
-0.462167 0.15156 -0.0978448
-0.479011 0.188781 -0.182538
-0.481999 0.20498 -0.254447
-0.470084 0.201765 -0.302394
-0.443346 0.18564 -0.318625
-0.403481 0.165754 -0.304387
-0.354021 0.149278 -0.268033
-0.299258 0.141427 -0.224736
-0.244573 0.142293 -0.189029
-0.194244 0.142313 -0.161627
-0.15083 0.139302 -0.142024
-0.114814 0.12669 -0.122193
-0.0851363 0.103601 -0.0972444
-0.119205 -0.0663406 0.357784
-0.1713 -0.0861297 0.438858
-0.229487 -0.0919885 0.467992
-0.292712 -0.0783163 0.440282
-0.357357 -0.0477159 0.367774
-0.417681 0.00441501 0.265881
-0.470281 0.0677793 0.159011
-0.510057 0.133501 0.0512308
-0.535498 0.191698 -0.0573804
-0.546853 0.230984 -0.156148
-0.54324 0.247341 -0.237815
-0.525177 0.241409 -0.289569
-0.493588 0.219495 -0.302811
-0.450368 0.191909 -0.280424
-0.398275 0.167508 -0.234447
-0.341073 0.153697 -0.185325
-0.28348 0.152368 -0.151678
-0.229565 0.152792 -0.132797
-0.181602 0.151734 -0.12649
-0.140161 0.140089 -0.119644
-0.104346 0.114941 -0.102828
-0.0961904 -0.0598839 0.480547
-0.1524 -0.0738564 0.581917
-0.219058 -0.0725836 0.61472
-0.291943 -0.0520961 0.576335
-0.364896 -0.0169008 0.483744
-0.428913 0.0366125 0.358578
-0.479129 0.0987272 0.234727
-0.510223 0.161964 0.117575
-0.523136 0.218172 0.00541329
-0.521456 0.257235 -0.0920727
-0.507458 0.274063 -0.169028
-0.483598 0.267452 -0.213031
-0.45172 0.242234 -0.216184
-0.413431 0.208754 -0.183923
-0.370149 0.177392 -0.131478
-0.322311 0.158009 -0.08359
-0.273733 0.154763 -0.0615925
-0.227081 0.156409 -0.0629634
-0.183854 0.158619 -0.0810941
-0.144539 0.149305 -0.0968771
-0.108762 0.123857 -0.0966353
-0.064458 -0.0532901 0.580055
-0.120166 -0.058287 0.692962
-0.188658 -0.0474973 0.721987
-0.263218 -0.020254 0.669148
-0.334956 0.0174451 0.555193
-0.3925 0.0675794 0.410817
-0.43026 0.12192 0.278433
-0.442693 0.176225 0.164031
-0.434518 0.225392 0.0627725
-0.413902 0.261871 -0.0180995
-0.386559 0.279643 -0.076296
-0.357039 0.275016 -0.101632
-0.328001 0.250179 -0.0882131
-0.300339 0.21436 -0.0448703
-0.273167 0.178795 0.011209
-0.243409 0.155545 0.0517428
-0.212637 0.151261 0.0542276
-0.181647 0.154647 0.0232249
-0.151313 0.160426 -0.0261326
-0.121523 0.154781 -0.0696845
-0.0918488 0.130905 -0.0892114
-0.0430232 -0.0478767 0.638452
-0.0961113 -0.0417931 0.751048
-0.161569 -0.0204583 0.767476
-0.230458 0.0127325 0.694116
-0.29282 0.0497144 0.559163
-0.334828 0.0916937 0.399843
-0.351709 0.13222 0.266057
-0.338939 0.171592 0.163676
-0.305191 0.209262 0.0845828
-0.263027 0.24106 0.0321148
-0.221347 0.260266 0.00343566
-0.186492 0.260319 0.00477838
-0.161597 0.239887 0.0388031
-0.146578 0.206015 0.0931797
-0.137758 0.16996 0.149264
-0.129191 0.145576 0.177494
-0.11998 0.141797 0.155775
-0.108617 0.147549 0.0929137
-0.095097 0.157668 0.0104438
-0.0784998 0.156663 -0.0595455
-0.0587984 0.136055 -0.0955057
-0.0470649 -0.0430099 0.639649
-0.0993077 -0.0262148 0.737738
-0.160685 0.00509915 0.73298
-0.221156 0.0421274 0.636522
-0.269955 0.0754656 0.481646
-0.293175 0.104497 0.312003
-0.287412 0.125584 0.181823
-0.249581 0.144548 0.0972109
-0.191393 0.166515 0.0475762
-0.128845 0.191341 0.0313038
-0.0733817 0.211955 0.0397575
-0.0328316 0.218714 0.0736901
-0.0105547 0.206092 0.131312
-0.00550593 0.178129 0.197133
-0.0112967 0.145412 0.25107
-0.0195848 0.123102 0.26423
-0.0277289 0.122226 0.217784
-0.0325983 0.132797 0.126298
-0.0331291 0.148801 0.0165758
-0.0281914 0.153998 -0.0743228
-0.0186584 0.137954 -0.120937
-0.0861406 -0.0371762 0.588326
-0.14237 -0.0116838 0.661862
-0.202735 0.0276503 0.631407
-0.257586 0.0658299 0.512218
-0.296382 0.0929922 0.34078
-0.306024 0.105984 0.164972
-0.284299 0.104446 0.0407564
-0.229378 0.100038 -0.025736
-0.154948 0.103587 -0.0471718
-0.0783588 0.119325 -0.0293393
-0.0124005 0.140311 0.0142398
0.0341993 0.154115 0.0792228
0.0580186 0.150967 0.159571
0.060663 0.131586 0.237195
0.0501491 0.105313 0.290765
0.0362897 0.0880606 0.292021
0.0222272 0.0924921 0.226147
0.0115442 0.110284 0.114721
0.00607989 0.133727 -0.0122462
0.00656031 0.146464 -0.114482
0.0109256 0.136172 -0.163075
-0.15006 -0.028745 0.489867
-0.213111 0.00249001 0.532307
-0.275309 0.0465038 0.475995
-0.328073 0.0834758 0.339048
-0.362384 0.102685 0.159054
-0.366889 0.0983293 -0.0145866
-0.340225 0.0729547 -0.127753
-0.281836 0.0431959 -0.175345
-0.204794 0.0259355 -0.171411
-0.12533 0.0296096 -0.124575
-0.0558066 0.0480992 -0.0513423
-0.00502357 0.067034 0.0402636
0.0237793 0.0730134 0.140964
0.0320089 0.0635229 0.230859
0.027764 0.0462414 0.287557
0.020194 0.0370874 0.283299
0.0123847 0.0496917 0.206508
0.00729221 0.0772977 0.0846352
0.00679836 0.110331 -0.0500849
0.0110462 0.132047 -0.156137
0.0169173 0.128536 -0.202019
-0.212808 -0.0178048 0.360057
-0.280937 0.0163856 0.369526
-0.344836 0.0616766 0.29263
-0.398051 0.0954695 0.148296
-0.43381 0.106246 -0.0270543
-0.443247 0.0858122 -0.185802
-0.425569 0.0377486 -0.280448
-0.379999 -0.0170027 -0.307847
-0.316581 -0.0561684 -0.282368
-0.247749 -0.0675475 -0.213868
-0.183607 -0.0555449 -0.119297
-0.132142 -0.035071 -0.00825156
-0.0963836 -0.0219097 0.108244
-0.0761615 -0.0213315 0.209349
-0.0653303 -0.0276168 0.271982
-0.0571397 -0.0258608 0.268971
-0.0498825 -0.00242481 0.190853
-0.041471 0.0366791 0.0673047
-0.0302001 0.0802946 -0.0681858
-0.0161268 0.111299 -0.173947
-0.00342646 0.115424 -0.217696
-0.246619 -0.00586585 0.22225
-0.31366 0.0287528 0.203616
-0.375483 0.0736074 0.116863
-0.429178 0.104041 -0.0197953
-0.470997 0.108121 -0.174209
-0.494588 0.0751408 -0.304838
-0.498692 0.00778522 -0.374655
-0.48088 -0.0699076 -0.383109
-0.445968 -0.13116 -0.343534
-0.400261 -0.160396 -0.26501
-0.350089 -0.159293 -0.161914
-0.301876 -0.141683 -0.0427069
-0.258643 -0.124214 0.0817409
-0.222519 -0.114194 0.19045
-0.191331 -0.108057 0.260091
-0.162176 -0.092819 0.264005
-0.13555 -0.0559593 0.193277
-0.110403 -0.0040612 0.0759886
-0.0854843 0.0501923 -0.0544611
-0.0603246 0.0898317 -0.157917
-0.0392009 0.100677 -0.202582
-0.229356 0.00212333 0.0936216
-0.284507 0.0356612 0.0559249
-0.336439 0.0795223 -0.0273638
-0.386683 0.108403 -0.140277
-0.434981 0.109542 -0.257547
-0.477154 0.0695418 -0.347545
-0.51039 -0.0118448 -0.386994
-0.529397 -0.108922 -0.378458
-0.53226 -0.191514 -0.333043
-0.517728 -0.240949 -0.257276
-0.48744 -0.255018 -0.16007
-0.445767 -0.244664 -0.0460258
-0.396176 -0.225675 0.0761553
-0.343939 -0.206518 0.186259
-0.292293 -0.18607 0.261063
-0.243039 -0.154242 0.274437
-0.199236 -0.101046 0.216598
-0.160743 -0.0352952 0.110553
-0.126752 0.0288058 -0.0113685
-0.0953915 0.0747923 -0.111626
-0.0697586 0.0900499 -0.160286
-0.155129 0.00129761 -0.0130634
-0.186546 0.0330391 -0.0590173
-0.219198 0.077214 -0.125965
-0.259403 0.108353 -0.201366
-0.31044 0.111996 -0.268922
-0.369818 0.0718177 -0.309989
-0.43236 -0.0171182 -0.316925
-0.489266 -0.129021 -0.295496
-0.531439 -0.231513 -0.253521
-0.549805 -0.302908 -0.193426
-0.541159 -0.335887 -0.116371
-0.507674 -0.336662 -0.0210779
-0.453798 -0.31835 0.0873811
-0.388329 -0.289616 0.190458
-0.320338 -0.252169 0.265347
-0.256447 -0.199839 0.286648
-0.202254 -0.126879 0.243021
-0.158328 -0.0461147 0.150778
-0.124051 0.0265486 0.0400022
-0.0955551 0.0754946 -0.0552979
-0.0735526 0.0908505 -0.108001
-0.0367751 -0.0106085 -0.0925355
-0.0356608 0.0200876 -0.136535
-0.0413968 0.0669557 -0.17719
-0.0647034 0.104649 -0.206241
-0.111966 0.116041 -0.217641
-0.181955 0.0819086 -0.207435
-0.266866 -0.00835969 -0.183785
-0.354571 -0.130231 -0.155174
-0.429544 -0.250276 -0.125299
-0.475919 -0.343813 -0.0913204
-0.486321 -0.397554 -0.0453787
-0.460928 -0.411605 0.0205086
-0.405572 -0.394995 0.105377
-0.332287 -0.355777 0.192914
-0.25516 -0.298866 0.26093
-0.184922 -0.222871 0.285094
-0.129256 -0.127697 0.252742
-0.0893092 -0.0315918 0.174193
-0.064327 0.0477295 0.0761344
-0.0483967 0.0958506 -0.0115823
-0.039163 0.107115 -0.0650226
0.0975057 -0.0346108 -0.147052
0.133441 -0.00433567 -0.181246
0.157751 0.0482966 -0.190104
0.156255 0.0965228 -0.1704
0.120303 0.119978 -0.12631
0.0500835 0.0968868 -0.0680233
-0.0445008 0.0107125 -0.0182178
-0.149193 -0.116487 0.0127875
-0.244023 -0.251085 0.0258338
-0.308564 -0.365401 0.0293793
-0.332637 -0.439748 0.0401361
-0.314864 -0.467313 0.0723058
-0.262398 -0.452102 0.128495
-0.189355 -0.400994 0.194681
-0.112733 -0.322416 0.249289
-0.0457874 -0.22031 0.269528
0.00259291 -0.101305 0.242347
0.0307933 0.00989685 0.174333
0.0398544 0.0940654 0.0882444
0.0370577 0.138758 0.00970847
0.0277373 0.140668 -0.0404701
0.215056 -0.0677024 -0.182999
0.280994 -0.0371497 -0.204257
0.33297 0.0225068 -0.18179
0.354413 0.0835557 -0.117246
0.335695 0.121007 -0.0247261
0.276186 0.111731 0.0732081
0.187043 0.0337615 0.142868
0.0821745 -0.0943109 0.173191
-0.0168575 -0.239501 0.169445
-0.0880463 -0.371424 0.145406
-0.120185 -0.464212 0.125017
-0.11086 -0.503943 0.126939
-0.0677289 -0.489105 0.155888
-0.0049453 -0.424929 0.199508
0.0605332 -0.323354 0.236795
0.115199 -0.193902 0.247006
0.150983 -0.0502794 0.217982
0.164827 0.0755624 0.155665
0.157254 0.163833 0.0790663
0.136194 0.202063 0.00982307
0.109153 0.190214 -0.0339958
0.287819 -0.10368 -0.20947
0.372964 -0.0732799 -0.218545
0.444703 -0.00679864 -0.170223
0.486846 0.0664363 -0.0702489
0.489558 0.117802 0.0597056
0.450714 0.122752 0.187108
0.380397 0.055383 0.270834
0.291017 -0.0697884 0.300607
0.202001 -0.221181 0.285777
0.133927 -0.366326 0.244494
0.0974393 -0.47393 0.205347
0.0956918 -0.523464 0.188795
0.121849 -0.507967 0.199481
0.164076 -0.430655 0.22538
0.208588 -0.306594 0.245837
0.245191 -0.150479 0.242424
0.265714 0.0165146 0.205231
0.266863 0.156306 0.141863
0.248445 0.247344 0.0688255
0.216264 0.277281 0.00507899
0.178654 0.248882 -0.0335781
0.304049 -0.135933 -0.230777
0.394884 -0.106098 -0.231108
0.47574 -0.035184 -0.165189
0.532754 0.0472452 -0.0424319
0.556832 0.109497 0.110899
0.54395 0.127054 0.25684
0.501506 0.0713388 0.350154
0.437856 -0.0472626 0.382163
0.368735 -0.19924 0.365883
0.310398 -0.351052 0.322213
0.271681 -0.467477 0.281259
0.256127 -0.522708 0.262417
0.259096 -0.505066 0.268074
0.272934 -0.4157 0.285084
0.290202 -0.271877 0.292983
0.304357 -0.093244 0.275888
0.309075 0.092737 0.226774
0.301583 0.242965 0.155694
0.280561 0.334285 0.0789388
0.248764 0.355026 0.0143819
0.211393 0.309325 -0.0244622
0.269488 -0.15727 -0.241285
0.35256 -0.128908 -0.236511
0.430947 -0.0575788 -0.16336
0.494303 0.0285512 -0.0343255
0.534809 0.0967408 0.124171
0.54753 0.123356 0.274442
0.53591 0.0792696 0.371713
0.502806 -0.0291792 0.408371
0.458493 -0.174993 0.398918
0.41324 -0.325024 0.365202
0.373261 -0.442368 0.33535
0.342408 -0.498066 0.325676
0.319415 -0.477129 0.335624
0.302082 -0.37892 0.350818
0.290496 -0.221863 0.351938
0.283176 -0.0290433 0.325641
0.27603 0.167635 0.267338
0.266924 0.32179 0.188535
0.252358 0.410025 0.106651
0.231494 0.42122 0.0388069
0.204275 0.360354 -0.00369732
0.20445 -0.162668 -0.237071
0.269188 -0.136387 -0.232472
0.33481 -0.0691905 -0.163318
0.395013 0.0137628 -0.0419611
0.44464 0.0810194 0.105479
0.47735 0.112003 0.246405
0.492758 0.0784522 0.340407
0.488574 -0.0164859 0.381875
0.468157 -0.149185 0.384157
0.435613 -0.288653 0.367987
0.394452 -0.398997 0.357123
0.348913 -0.450591 0.363437
0.301685 -0.426761 0.383311
0.256481 -0.325382 0.401548
0.22029 -0.164771 0.400752
0.197292 0.0309136 0.369821
0.185372 0.227624 0.306498
0.182374 0.378115 0.222762
0.182241 0.459863 0.137968
0.180008 0.46273 0.0672745
0.170361 0.39217 0.0205894
0.131223 -0.151568 -0.216765
0.17396 -0.127803 -0.215588
0.221419 -0.0687011 -0.158778
0.272103 0.00456937 -0.0564652
0.323056 0.064903 0.0687805
0.367184 0.095478 0.189214
0.401111 0.0706774 0.27225
0.418689 -0.00869222 0.314341
0.416725 -0.122911 0.327076
0.394216 -0.244698 0.327829
0.35253 -0.341636 0.335146
0.296263 -0.385875 0.356338
0.231634 -0.360762 0.385536
0.167477 -0.263141 0.40785
0.115506 -0.109893 0.408222
0.0840743 0.0757923 0.377816
0.0735641 0.260905 0.316729
0.0809112 0.399743 0.235943
0.0976601 0.471929 0.154224
0.115356 0.469048 0.0857792
0.124075 0.396274 0.0386
0.0689583 -0.127653 -0.179484
0.0915439 -0.106899 -0.182253
0.12069 -0.0587264 -0.1422
0.158198 0.00143466 -0.0658361
0.203282 0.0517795 0.029732
0.248584 0.0791217 0.122034
0.289113 0.0614763 0.187938
0.316436 -0.00176267 0.225182
0.324547 -0.0950772 0.24309
0.309003 -0.195736 0.254418
0.2699 -0.276266 0.27241
0.211915 -0.312316 0.30078
0.143203 -0.288599 0.333091
0.0746161 -0.201578 0.356472
0.020089 -0.0651669 0.358589
-0.0109956 0.0999348 0.33352
-0.0173661 0.263751 0.2822
-0.001992 0.384581 0.213727
0.0269286 0.444996 0.144053
0.0584309 0.438528 0.0851323
0.0802729 0.370747 0.0436754
-0.147572 -0.130745 0.270267
-0.18829 -0.173797 0.327997
-0.226616 -0.200923 0.344786
-0.265445 -0.204209 0.315634
-0.306023 -0.184117 0.251988
-0.347515 -0.136093 0.166967
-0.390012 -0.0717313 0.0771572
-0.430816 -0.000566499 -0.0159831
-0.467694 0.0666096 -0.113398
-0.497159 0.117257 -0.206564
-0.515306 0.146424 -0.28795
-0.519127 0.154068 -0.344014
-0.506355 0.145843 -0.364733
-0.47677 0.131355 -0.350766
-0.432607 0.119205 -0.311571
-0.378523 0.116608 -0.265172
-0.319915 0.124822 -0.228486
-0.262133 0.133488 -0.201483
-0.209029 0.139325 -0.182495
-0.162441 0.133426 -0.160938
-0.12267 0.113403 -0.130395
-0.141191 -0.123806 0.403061
-0.190077 -0.164719 0.484223
-0.240331 -0.187695 0.505134
-0.292533 -0.185742 0.463968
-0.345684 -0.16057 0.377823
-0.397611 -0.10875 0.264887
-0.447574 -0.0422534 0.151613
-0.491728 0.0302124 0.0399607
-0.528262 0.0986628 -0.0732297
-0.556042 0.150048 -0.179182
-0.572029 0.178649 -0.269864
-0.57436 0.183241 -0.329514
-0.561064 0.169061 -0.346537
-0.531716 0.146835 -0.322895
-0.487428 0.126919 -0.272166
-0.432359 0.11896 -0.218446
-0.371175 0.126285 -0.183718
-0.309238 0.137141 -0.166388
-0.250317 0.14681 -0.163027
-0.196653 0.143456 -0.156988
-0.149147 0.122404 -0.136524
-0.10718 -0.109475 0.529603
-0.157298 -0.141648 0.628732
-0.213209 -0.155228 0.649336
-0.272691 -0.145371 0.593398
-0.332398 -0.116035 0.48442
-0.38701 -0.0649732 0.347561
-0.434448 -0.0028193 0.21921
-0.470478 0.0636248 0.101947
-0.495689 0.126801 -0.0104118
-0.512183 0.175452 -0.111122
-0.51998 0.202877 -0.193937
-0.518943 0.205754 -0.243227
-0.507841 0.187537 -0.247623
-0.485734 0.158868 -0.211448
-0.452271 0.131575 -0.151755
-0.408182 0.117943 -0.0976949
-0.357279 0.123908 -0.0747012
-0.303626 0.137011 -0.0794287
-0.25021 0.150945 -0.103901
-0.199238 0.150667 -0.124574
-0.152401 0.129676 -0.124494
-0.062135 -0.0886639 0.629265
-0.108761 -0.106247 0.737047
-0.163941 -0.106043 0.749644
-0.22317 -0.0874256 0.674759
-0.280435 -0.0563757 0.541178
-0.327928 -0.0117667 0.384534
-0.362781 0.0382859 0.249932
-0.379994 0.0912779 0.139981
-0.383753 0.143472 0.0440877
-0.380983 0.186803 -0.0343512
-0.37512 0.213621 -0.0933514
-0.368109 0.217673 -0.119574
-0.359693 0.199263 -0.103463
-0.348298 0.167644 -0.0527862
-0.331361 0.135295 0.0134112
-0.306169 0.116982 0.0618133
-0.274477 0.121434 0.0651233
-0.238616 0.136091 0.0284888
-0.200721 0.153348 -0.0308514
-0.162156 0.156314 -0.0836481
-0.124506 0.136353 -0.107635
-0.0287274 -0.0640932 0.685762
-0.0704077 -0.0631632 0.790451
-0.120948 -0.0471325 0.78638
-0.173696 -0.0205228 0.68644
-0.221378 0.00819234 0.528324
-0.253356 0.0405041 0.355644
-0.267237 0.0716561 0.22124
-0.258488 0.104925 0.127066
-0.235011 0.142078 0.0584595
-0.208357 0.178899 0.0141522
-0.185236 0.206721 -0.00981994
-0.169576 0.21567 -0.00441555
-0.16205 0.201774 0.0365833
-0.160505 0.171678 0.101693
-0.159887 0.137622 0.170426
-0.155059 0.116551 0.208051
-0.145639 0.11987 0.187127
-0.13176 0.135315 0.116897
-0.114477 0.155345 0.021297
-0.0938852 0.161376 -0.06132
-0.0714023 0.143247 -0.105019
-0.0248761 -0.0374104 0.685628
-0.0646852 -0.0179345 0.77343
-0.11085 0.013092 0.744762
-0.155487 0.0445935 0.618027
-0.19027 0.0666992 0.436807
-0.203978 0.0808326 0.252082
-0.195236 0.0870645 0.121471
-0.160417 0.0956219 0.0471214
-0.11009 0.114796 0.011516
-0.0593724 0.144583 0.00785381
-0.017742 0.175221 0.0255924
0.00908257 0.192639 0.0676841
0.0195721 0.187648 0.135517
0.0162498 0.163365 0.214275
0.00635285 0.131103 0.282059
-0.00314977 0.109702 0.305125
-0.0105867 0.113189 0.259359
-0.0147087 0.130755 0.159779