# vtk DataFile Version 2.0
Func
ASCII
DATASET RECTILINEAR_GRID
DIMENSIONS 21 21 21
X_COORDINATES 21 double
-0.47619
-0.428571
-0.380952
-0.333333
-0.285714
-0.238095
-0.190476
-0.142857
-0.0952381
-0.047619
0
0.047619
0.0952381
0.142857
0.190476
0.238095
0.285714
0.333333
0.380952
0.428571
0.47619
Y_COORDINATES 21 double
-0.47619
-0.428571
-0.380952
-0.333333
-0.285714
-0.238095
-0.190476
-0.142857
-0.0952381
-0.047619
0
0.047619
0.0952381
0.142857
0.190476
0.238095
0.285714
0.333333
0.380952
0.428571
0.47619
Z_COORDINATES 21 double
-0.47619
-0.428571
-0.380952
-0.333333
-0.285714
-0.238095
-0.190476
-0.142857
-0.0952381
-0.047619
0
0.047619
0.0952381
0.142857
0.190476
0.238095
0.285714
0.333333
0.380952
0.428571
0.47619
POINT_DATA 9261
SCALARS data double 3
LOOKUP_TABLE default
0.0240013 -0.140142 0.022451
0.0388605 -0.0874292 0.0121029
0.0579979 -0.0221025 0.00310418
0.0640403 0.0120489 -0.00485019
0.105109 0.0607852 0.0318179
0.129864 0.0847522 0.0359163
0.150296 0.0860265 0.0298285
0.161009 0.0531958 0.0298251
0.171676 -0.0142131 0.0260105
0.174899 -0.0679044 0.0370163
0.177178 -0.106538 0.0561684
0.187675 -0.15124 0.0621141
0.196759 -0.171516 0.0366284
0.203791 -0.149462 -0.0534573
0.202193 -0.159274 -0.0681601
0.194971 -0.160842 -0.0846738
0.183411 -0.153018 -0.0793925
0.160493 -0.0949544 -0.0587236
0.152713 -0.09214 -0.0359484
0.134582 -0.0637311 -0.0115957
0.116425 -0.038724 0.00518426
0.0296313 -0.152446 0.0305569
0.0468325 -0.0944315 0.00750483
0.0695495 -0.0212223 -0.01531
0.0772776 0.0193366 -0.0259336
0.127646 0.0718474 0.000511664
0.15887 0.0981361 0.0041144
0.184981 0.0985909 0.00108618
0.197988 0.0622516 0.00718395
0.213167 -0.0163115 0.00539515
0.217949 -0.0760134 0.0190289
0.222147 -0.117068 0.0392833
0.235238 -0.166991 0.0434333
0.247774 -0.188478 0.0145259
0.257842 -0.162839 -0.0818341
0.258708 -0.170474 -0.098614
0.252791 -0.171611 -0.118951
0.241142 -0.164091 -0.118232
0.215843 -0.102217 -0.108278
0.206292 -0.102611 -0.0859847
0.183626 -0.0751573 -0.0657712
0.159607 -0.0502316 -0.0487091
0.0393978 -0.163974 0.0344213
0.0574964 -0.102794 -0.00327753
0.0811116 -0.0242355 -0.0406296
0.0894482 0.0215862 -0.0525002
0.14362 0.0764586 -0.0343825
0.177982 0.105176 -0.0285397
0.20712 0.106074 -0.0263866
0.220893 0.0688233 -0.014199
0.237478 -0.0176627 -0.013199
0.242471 -0.0800214 0.00099081
0.2474 -0.120552 0.0187401
0.262285 -0.174509 0.0202172
0.277895 -0.196998 -0.0109969
0.290495 -0.169587 -0.109546
0.295547 -0.174653 -0.128158
0.292239 -0.176671 -0.150217
0.2822 -0.171293 -0.153309
0.255989 -0.108132 -0.155587
0.245057 -0.113318 -0.13586
0.21845 -0.0878536 -0.122675
0.189006 -0.0634851 -0.106882
0.0612235 -0.166754 0.0197391
0.0807412 -0.104494 -0.0217601
0.103723 -0.0233899 -0.0617151
0.111661 0.0244728 -0.0737513
0.162042 0.080893 -0.0566458
0.193896 0.109819 -0.0486166
0.221091 0.109088 -0.0434761
0.231867 0.0680747 -0.0296462
0.247738 -0.0241641 -0.0282395
0.251666 -0.089298 -0.019018
0.257064 -0.129899 -0.00974587
0.26984 -0.184561 -0.0132558
0.284826 -0.205594 -0.0434629
0.295796 -0.174456 -0.132674
0.303586 -0.176293 -0.150655
0.302036 -0.176478 -0.168637
0.294 -0.170398 -0.170805
0.269524 -0.106283 -0.174955
0.258511 -0.112729 -0.156774
0.231443 -0.0885196 -0.145669
0.199776 -0.065204 -0.130612
0.0901346 -0.182215 0.0361344
0.108897 -0.119093 -0.0252375
0.128948 -0.033691 -0.0847474
0.135966 0.0198548 -0.0976752
0.176425 0.0770364 -0.0813534
0.200553 0.109804 -0.0669181
0.218868 0.112897 -0.0560487
0.22332 0.0774343 -0.0392299
0.224572 -0.0159069 -0.0376314
0.219127 -0.0739001 -0.0315003
0.217048 -0.104678 -0.0252245
0.226904 -0.163937 -0.0255193
0.240061 -0.190227 -0.0503292
0.247515 -0.167204 -0.132777
0.255722 -0.171076 -0.145703
0.252978 -0.179698 -0.158177
0.244003 -0.180763 -0.160108
0.216205 -0.117399 -0.183432
0.206515 -0.128745 -0.16946
0.179996 -0.106324 -0.17698
0.150368 -0.0839732 -0.174056
0.130918 -0.188734 0.0296792
0.151781 -0.124143 -0.0399366
0.171112 -0.035143 -0.107074
0.17857 0.0208823 -0.121715
0.209425 0.0786174 -0.101592
0.226265 0.111879 -0.0827517
0.23635 0.115035 -0.0678451
0.234285 0.0796566 -0.0523107
0.224763 -0.0147436 -0.0513049
0.211875 -0.0692088 -0.0480617
0.203146 -0.0947767 -0.04407
0.205948 -0.157512 -0.0388252
0.212299 -0.187722 -0.0535575
0.210255 -0.169143 -0.121038
0.214966 -0.175243 -0.125482
0.207594 -0.187756 -0.129904
0.19581 -0.190455 -0.127264
0.164478 -0.124198 -0.154894
0.156126 -0.134925 -0.144176
0.130716 -0.111323 -0.163424
0.103972 -0.0883136 -0.170313
0.16997 -0.193664 0.013166
0.194184 -0.126251 -0.0634762
0.214907 -0.0327865 -0.136795
0.224396 0.0256984 -0.155014
0.248273 0.0838841 -0.131872
0.260094 0.116522 -0.110522
0.264345 0.118181 -0.0932976
0.258201 0.0813313 -0.0784103
0.239976 -0.0139728 -0.0782271
0.220691 -0.0661627 -0.0748424
0.205585 -0.088214 -0.068744
0.200377 -0.155624 -0.0517981
0.197842 -0.191333 -0.0515507
0.183684 -0.177646 -0.102078
0.181134 -0.187567 -0.096991
0.165972 -0.203046 -0.0899806
0.148594 -0.205585 -0.0811621
0.111589 -0.134215 -0.111134
0.104618 -0.141478 -0.103163
0.0804185 -0.113813 -0.131803
0.0568803 -0.0880584 -0.149046
0.187545 -0.195226 -0.0220272
0.214008 -0.125555 -0.101894
0.236014 -0.0284702 -0.17753
0.247886 0.0331677 -0.199856
0.267417 0.0921326 -0.176067
0.277637 0.124917 -0.15416
0.280927 0.126347 -0.134182
0.275199 0.0901509 -0.115515
0.256308 -0.00496144 -0.106776
0.236431 -0.0551385 -0.0981889
0.21986 -0.0761867 -0.0857997
0.207523 -0.147012 -0.0565546
0.196444 -0.188063 -0.0420437
0.1709 -0.18108 -0.076568
0.160915 -0.195626 -0.0610525
0.138625 -0.214315 -0.0465688
0.116765 -0.216456 -0.0349816
0.0777747 -0.141516 -0.062721
0.0719891 -0.144104 -0.0598701
0.0502127 -0.113267 -0.0905854
0.030174 -0.0852109 -0.111581
0.192797 -0.203289 -0.0558309
0.223916 -0.126386 -0.142501
0.251491 -0.0216465 -0.226457
0.268813 0.0414584 -0.254758
0.295949 0.100698 -0.237107
0.313011 0.129848 -0.223274
0.322866 0.12609 -0.21075
0.321826 0.0826864 -0.189503
0.306136 -0.0152742 -0.184287
0.286503 -0.0675054 -0.168015
0.266606 -0.0902182 -0.142161
0.250287 -0.171527 -0.0834434
0.232358 -0.222486 -0.0448097
0.198802 -0.218468 -0.06252
0.176939 -0.242811 -0.0377606
0.144407 -0.264024 -0.0132817
0.113668 -0.263801 0.0043375
0.0643508 -0.177202 -0.0217142
0.0580898 -0.173248 -0.0246178
0.0347244 -0.132289 -0.0633968
0.0151368 -0.0950546 -0.0943347
0.179584 -0.208242 -0.0716242
0.213667 -0.126867 -0.161164
0.246409 -0.0172675 -0.248229
0.268593 0.0468524 -0.284076
0.307577 0.106291 -0.269021
0.335626 0.133333 -0.260982
0.357496 0.126816 -0.251155
0.365077 0.0797044 -0.226563
0.363358 -0.0190099 -0.212407
0.351744 -0.0722771 -0.179574
0.336185 -0.0968391 -0.13265
0.318885 -0.184717 -0.0509235
0.29729 -0.242943 0.00314966
0.25967 -0.242001 -0.0120023
0.229196 -0.274679 0.0176729
0.190138 -0.298982 0.0424178
0.15401 -0.298278 0.0598562
0.0999248 -0.205851 0.0353019
0.0926396 -0.197185 0.030071
0.0677771 -0.149547 -0.0104683
0.0467243 -0.105794 -0.0464069
0.150844 -0.210872 -0.0667429
0.186015 -0.12579 -0.156454
0.222749 -0.0128035 -0.244559
0.24818 0.0507407 -0.289131
0.301131 0.109212 -0.273908
0.341726 0.133621 -0.271472
0.377994 0.124543 -0.264502
0.395488 0.0741533 -0.237589
0.41274 -0.0243818 -0.210645
0.41268 -0.0785118 -0.15792
0.405189 -0.104817 -0.0865242
0.390143 -0.197835 0.0153932
0.368363 -0.261516 0.0800483
0.331445 -0.261343 0.0576489
0.295264 -0.301437 0.0900242
0.25333 -0.328476 0.109532
0.214836 -0.328709 0.123456
0.159122 -0.233339 0.0982753
0.150989 -0.222622 0.0926317
0.124573 -0.170448 0.0522293
0.101336 -0.121197 0.012968
0.11864 -0.198284 -0.0691409
0.146563 -0.118761 -0.1505
0.177145 -0.0115203 -0.232089
0.201087 0.0484362 -0.282866
0.248679 0.10116 -0.273406
0.288809 0.12388 -0.279296
0.326202 0.116768 -0.276375
0.34834 0.0739388 -0.247393
0.364289 -0.0161661 -0.20736
0.364235 -0.0605743 -0.136519
0.355067 -0.0785965 -0.0441434
0.337359 -0.166983 0.0678197
0.31183 -0.229597 0.137268
0.272137 -0.234351 0.112836
0.232331 -0.274386 0.146604
0.189531 -0.305745 0.160406
0.152009 -0.311776 0.170812
0.101055 -0.22706 0.151279
0.0957267 -0.219975 0.145443
0.0745932 -0.173834 0.110006
0.0574558 -0.128264 0.0705965
0.0710053 -0.178866 -0.0620092
0.0898784 -0.106015 -0.133294
0.112595 -0.00719654 -0.207356
0.132314 0.0458938 -0.261729
0.174664 0.0903897 -0.260232
0.213622 0.108943 -0.275925
0.251933 0.102057 -0.280081
0.277904 0.0653744 -0.251526
0.295163 -0.0164112 -0.206521
0.297647 -0.0515795 -0.123506
0.290408 -0.0613096 -0.0156359
0.27524 -0.143208 0.102675
0.252036 -0.201798 0.174961
0.217408 -0.207506 0.149814
0.179023 -0.244503 0.185142
0.140651 -0.276878 0.196316
0.107925 -0.286653 0.20529
0.0647912 -0.212805 0.192152
0.0616529 -0.210102 0.185914
0.0452141 -0.171666 0.154108
0.0327379 -0.131282 0.113334
0.00458221 -0.144492 -0.0465908
0.0136128 -0.0828446 -0.104495
0.0278972 0.00124572 -0.170328
0.041613 0.0427949 -0.226578
0.0802001 0.0735418 -0.243981
0.118303 0.0841904 -0.277077
0.158474 0.0753086 -0.296748
0.189192 0.045387 -0.271328
0.211877 -0.0253715 -0.236424
0.220823 -0.0487681 -0.150206
0.220551 -0.0473904 -0.0348987
0.21523 -0.118311 0.0855317
0.202272 -0.168703 0.163147
0.182165 -0.172963 0.151014
0.150745 -0.20213 0.191061
0.12212 -0.231702 0.206898
0.0976822 -0.243601 0.218824
0.0657276 -0.18494 0.211299
0.0623879 -0.186953 0.202038
0.0485873 -0.159917 0.169432
0.0373508 -0.128095 0.12344
-0.0456913 -0.133039 -0.013347
-0.0453532 -0.0752999 -0.0679543
-0.0388502 0.00174674 -0.132859
-0.0323302 0.0343399 -0.191416
0.00358811 0.0571859 -0.210303
0.0402656 0.0615799 -0.247136
0.0824085 0.0497013 -0.272284
0.115685 0.0195079 -0.250849
0.148747 -0.0474644 -0.217488
0.167324 -0.0685053 -0.130537
0.178326 -0.0645885 -0.0119361
0.184848 -0.13074 0.10944
0.184529 -0.175822 0.185569
0.181005 -0.173749 0.167484
0.159809 -0.19748 0.208838
0.142536 -0.221906 0.224127
0.126445 -0.231819 0.236696
0.102901 -0.175718 0.229426
0.0993163 -0.179911 0.217989
0.0857133 -0.15601 0.184016
0.0729695 -0.125997 0.136681
-0.0933986 -0.110455 0.0273508
-0.100099 -0.0586295 -0.0246024
-0.100331 0.00775375 -0.0907928
-0.100931 0.0297087 -0.150913
-0.0668329 0.0426773 -0.182569
-0.0315575 0.0388954 -0.22812
0.0119579 0.022335 -0.260487
0.0471135 -0.00877782 -0.24284
0.0903613 -0.0708568 -0.217604
0.118607 -0.089351 -0.134471
0.141403 -0.0834711 -0.0185171
0.161684 -0.143828 0.0994444
0.176694 -0.182804 0.177204
0.192457 -0.174818 0.166107
0.183698 -0.192377 0.21223
0.178824 -0.209796 0.23046
0.171729 -0.215863 0.241593
0.156605 -0.163568 0.229796
0.151334 -0.167548 0.217496
0.136596 -0.146678 0.177522
0.120258 -0.118828 0.124105
-0.118716 -0.0909428 0.0771238
-0.128862 -0.0437446 0.0232826
-0.132969 0.0135273 -0.0482379
-0.138479 0.0271537 -0.110642
-0.105359 0.0320399 -0.152096
-0.07171 0.0215837 -0.202451
-0.0282775 0.000784771 -0.239206
0.00619809 -0.0322473 -0.225389
0.0564488 -0.0897831 -0.204636
0.0914883 -0.107361 -0.126629
0.122889 -0.101702 -0.0155792
0.153686 -0.158 0.0972505
0.181138 -0.192706 0.175205
0.211866 -0.180069 0.170396
0.21416 -0.193968 0.221649
0.219298 -0.205363 0.240913
0.219174 -0.207141 0.250213
0.209579 -0.157061 0.228314
0.202444 -0.159283 0.214094
0.185618 -0.13897 0.165796
0.165115 -0.111638 0.106985
-0.114491 -0.0699064 0.129205
-0.125305 -0.0292263 0.0671339
-0.131516 0.016975 -0.0143969
-0.139439 0.0236332 -0.0776525
-0.110099 0.0193092 -0.131929
-0.0801017 0.0028783 -0.180425
-0.0401195 -0.0209254 -0.212727
-0.0100153 -0.0555672 -0.200566
0.0426005 -0.103442 -0.177754
0.0798794 -0.118722 -0.106647
0.11541 -0.11394 -0.00697696
0.149606 -0.166439 0.0948704
0.182872 -0.198685 0.171927
0.220353 -0.183938 0.181804
0.230313 -0.198533 0.23479
0.241606 -0.206333 0.254689
0.245816 -0.205376 0.258444
0.240457 -0.158856 0.213598
0.232937 -0.159944 0.197155
0.216045 -0.139278 0.137795
0.194146 -0.111194 0.0749164
-0.110357 -0.0625778 0.158011
-0.120106 -0.0235433 0.0931684
-0.125712 0.0184511 0.00783175
-0.133255 0.0217147 -0.0529819
-0.104379 0.0156475 -0.104256
-0.0771646 -0.0028204 -0.14899
-0.0417051 -0.0281917 -0.179753
-0.0162353 -0.0626841 -0.169312
0.0307012 -0.10932 -0.152525
0.0640946 -0.125598 -0.0870671
0.0964844 -0.122672 0.00679076
0.13113 -0.173369 0.102817
0.166289 -0.203948 0.175235
0.206548 -0.188178 0.178484
0.21997 -0.20139 0.229752
0.233385 -0.206073 0.250556
0.238798 -0.201948 0.253863
0.233242 -0.153937 0.204121
0.225535 -0.151853 0.186173
0.209488 -0.12829 0.122081
0.188651 -0.0991351 0.0570716
-0.0979418 -0.0557225 0.15306
-0.107671 -0.0219913 0.0822325
-0.113866 0.0131245 -0.00682269
-0.12045 0.0140259 -0.0601376
-0.099269 0.00456885 -0.112572
-0.0792921 -0.0151432 -0.149314
-0.0529452 -0.0401242 -0.172547
-0.0353623 -0.0726835 -0.159841
-0.00132625 -0.111721 -0.146338
0.0226527 -0.12547 -0.0912014
0.0466714 -0.122681 -0.0127192
0.0760957 -0.169824 0.0732951
0.107075 -0.19877 0.139403
0.143537 -0.184386 0.146422
0.156997 -0.198426 0.192056
0.169855 -0.201687 0.211991
0.17523 -0.196142 0.212651
0.171215 -0.149768 0.157725
0.165756 -0.145115 0.138319
0.154524 -0.119766 0.0727765
0.140371 -0.0902661 0.0114312
-0.0826538 -0.0516428 0.132639
-0.0921767 -0.0240426 0.0610866
-0.0985226 0.00397081 -0.025533
-0.102984 0.00250564 -0.0697779
-0.0902222 -0.00880173 -0.118426
-0.0769805 -0.0279653 -0.146368
-0.0593959 -0.050858 -0.162866
-0.0481477 -0.0801329 -0.14823
-0.0285225 -0.110637 -0.139658
-0.0148108 -0.120826 -0.0970018
-0.000504891 -0.117047 -0.0360283
0.0221239 -0.15938 0.0382895
0.046567 -0.185854 0.0961275
0.0757751 -0.173399 0.106015
0.0865742 -0.18734 0.143678
0.0964521 -0.189632 0.16226
0.0999224 -0.183555 0.16204
0.0958393 -0.140281 0.10685
0.0926158 -0.134086 0.0878121
0.0861644 -0.108279 0.0256866
0.0791122 -0.079416 -0.0284548
0.025843 -0.134513 0.0247461
0.039111 -0.0818906 0.0107416
0.0564172 -0.0165584 -0.00158096
0.0608477 0.0178399 -0.0116042
0.0971465 0.0659111 0.0313766
0.117297 0.0893348 0.0385945
0.132589 0.0860247 0.0352889
0.141243 0.0448461 0.0384355
0.143688 -0.0355935 0.0387724
0.141633 -0.100906 0.0529802
0.139045 -0.147595 0.0739354
0.146253 -0.183609 0.0793431
0.151603 -0.192858 0.0476786
0.153871 -0.156566 -0.0573512
0.148959 -0.164732 -0.0763656
0.138406 -0.169644 -0.0943522
0.124615 -0.170087 -0.0856351
0.102426 -0.125082 -0.0589196
0.0958372 -0.125655 -0.0299295
0.0818243 -0.0999619 -0.000130779
0.0691847 -0.0716482 0.0193211
0.0376766 -0.145476 0.0297972
0.0541031 -0.0876014 0.00153596
0.0757223 -0.0144271 -0.0260816
0.0821754 0.0264144 -0.0391778
0.128468 0.0782123 -0.00603425
0.155473 0.103993 0.00132534
0.176761 0.0995394 0.00179035
0.187862 0.0538887 0.0114862
0.195168 -0.038588 0.0137371
0.194949 -0.110185 0.0303341
0.194616 -0.158668 0.0520985
0.204434 -0.198083 0.0554657
0.213134 -0.206285 0.020103
0.217764 -0.164253 -0.0910433
0.214941 -0.168675 -0.11221
0.204686 -0.173311 -0.133337
0.189521 -0.175455 -0.128542
0.162816 -0.129141 -0.11239
0.153798 -0.134082 -0.0833107
0.133807 -0.110851 -0.0572746
0.114143 -0.0833191 -0.0371431
0.0515317 -0.155654 0.0313314
0.069173 -0.0946842 -0.0132373
0.091906 -0.0163453 -0.0568515
0.0991365 0.0296745 -0.0712521
0.14964 0.0837442 -0.0460486
0.180199 0.11203 -0.0356474
0.204966 0.107936 -0.0294868
0.217038 0.0607724 -0.0137189
0.226306 -0.0397767 -0.00947924
0.226743 -0.113663 0.006645
0.227628 -0.160481 0.0248968
0.23941 -0.202069 0.0254379
0.251488 -0.209092 -0.0117718
0.2588 -0.163288 -0.123443
0.260749 -0.163475 -0.145805
0.25324 -0.168949 -0.16768
0.239339 -0.174588 -0.166432
0.210398 -0.129602 -0.163553
0.199395 -0.140703 -0.137501
0.173854 -0.121321 -0.119268
0.147201 -0.0955288 -0.100515
0.0715332 -0.158802 0.013651
0.090102 -0.0967005 -0.0352239
0.111537 -0.0156405 -0.0815998
0.118204 0.032742 -0.0956878
0.163629 0.0885371 -0.0709143
0.19105 0.117138 -0.0574191
0.213337 0.111366 -0.0478365
0.221963 0.0599105 -0.0304757
0.230216 -0.0470163 -0.0266089
0.229518 -0.123758 -0.0168051
0.231121 -0.170224 -0.0082701
0.241014 -0.211939 -0.0132538
0.253004 -0.216505 -0.0488911
0.259461 -0.165681 -0.149175
0.264992 -0.161447 -0.170244
0.26033 -0.164732 -0.187586
0.249531 -0.1699 -0.185834
0.223688 -0.124529 -0.186061
0.212525 -0.137399 -0.16292
0.186576 -0.120018 -0.147813
0.157562 -0.0958905 -0.130098
0.0991274 -0.17099 0.0314152
0.116661 -0.108184 -0.0388578
0.134496 -0.0232404 -0.106437
0.139944 0.0304351 -0.121261
0.174014 0.0862444 -0.097197
0.192895 0.118814 -0.0771162
0.205538 0.117391 -0.0625069
0.206903 0.0716815 -0.0430703
0.200394 -0.0340984 -0.0419833
0.190419 -0.101344 -0.0378341
0.184935 -0.135184 -0.0341165
0.192194 -0.179428 -0.0350591
0.202983 -0.187419 -0.0630722
0.207138 -0.14369 -0.152334
0.213854 -0.140227 -0.165975
0.209069 -0.152671 -0.175282
0.198514 -0.166591 -0.172649
0.170388 -0.125331 -0.195016
0.161076 -0.144401 -0.177744
0.136011 -0.131409 -0.18509
0.109272 -0.110624 -0.182016
0.133635 -0.175084 0.0245264
0.152399 -0.110594 -0.0544695
0.16831 -0.0218925 -0.130097
0.173809 0.0344973 -0.146066
0.195891 0.090213 -0.118249
0.206106 0.12311 -0.093531
0.209153 0.121683 -0.0752307
0.202616 0.0757963 -0.0578073
0.184393 -0.0303938 -0.0594189
0.166311 -0.0930708 -0.0596321
0.153759 -0.120349 -0.0590075
0.153521 -0.167585 -0.0535659
0.1575 -0.179012 -0.0693577
0.15305 -0.139525 -0.140365
0.156757 -0.137755 -0.143489
0.148917 -0.154387 -0.143255
0.137737 -0.1705 -0.136109
0.109383 -0.127535 -0.164722
0.102766 -0.146309 -0.153086
0.0810142 -0.133284 -0.175464
0.0590818 -0.11311 -0.184446
0.165154 -0.176445 0.00641899
0.186125 -0.108639 -0.0801347
0.202121 -0.0151673 -0.162383
0.209341 0.0441423 -0.181517
0.221755 0.0994358 -0.151059
0.225433 0.131326 -0.123831
0.221087 0.127941 -0.10364
0.209015 0.0800725 -0.0872996
0.180756 -0.0266412 -0.0910925
0.155138 -0.0864398 -0.0916349
0.135375 -0.109271 -0.0885423
0.126127 -0.161375 -0.0698253
0.120585 -0.178601 -0.0683093
0.104375 -0.144543 -0.119713
0.100961 -0.146377 -0.111696
0.0869078 -0.166429 -0.0989365
0.0725826 -0.182899 -0.0858919
0.0426741 -0.135601 -0.118944
0.0394426 -0.151035 -0.112438
0.0221105 -0.134507 -0.147068
0.00609372 -0.1125 -0.168424
0.178842 -0.176005 -0.0308899
0.201424 -0.105085 -0.121089
0.217947 -0.00692282 -0.205916
0.227476 0.0564024 -0.22905
0.233712 0.112788 -0.198415
0.234607 0.144922 -0.170622
0.228131 0.14132 -0.147452
0.215386 0.0940223 -0.127004
0.185348 -0.0123299 -0.121435
0.15795 -0.0697946 -0.115895
0.135676 -0.0914405 -0.105295
0.117817 -0.147521 -0.0726227
0.102467 -0.170862 -0.0551987
0.0742478 -0.144447 -0.0894945
0.0632658 -0.151149 -0.0703435
0.0431544 -0.17477 -0.050701
0.0263382 -0.191097 -0.0363533
-0.0019079 -0.140394 -0.0686571
-0.00184141 -0.150838 -0.069176
-0.0138081 -0.131298 -0.107305
-0.0239311 -0.107352 -0.133128
0.173801 -0.175883 -0.069789
0.199154 -0.0968704 -0.1676
0.219531 0.00922591 -0.261574
0.234633 0.0747233 -0.290443
0.245918 0.128756 -0.267282
0.252748 0.155947 -0.248515
0.252174 0.145804 -0.233493
0.243557 0.0905941 -0.20978
0.215902 -0.0190498 -0.20669
0.187928 -0.0784572 -0.190811
0.161329 -0.101698 -0.163339
0.137971 -0.169623 -0.0984205
0.114466 -0.204682 -0.0553465
0.0777505 -0.183646 -0.0729634
0.0543104 -0.20127 -0.0448398
0.0249858 -0.228863 -0.0156486
0.00132711 -0.24395 0.00394036
-0.033122 -0.182522 -0.0271383
-0.0316269 -0.187118 -0.0353117
-0.0417517 -0.15823 -0.0828516
-0.0481667 -0.125501 -0.11977
0.156706 -0.175547 -0.0860593
0.184107 -0.0912871 -0.186728
0.208896 0.0202689 -0.28374
0.229255 0.0875268 -0.320194
0.25127 0.140465 -0.299734
0.269029 0.164992 -0.287056
0.280505 0.15165 -0.274472
0.28083 0.0928811 -0.246924
0.266855 -0.0175626 -0.231781
0.246674 -0.0777921 -0.195837
0.224024 -0.10301 -0.143439
0.198763 -0.178777 -0.0535607
0.170737 -0.222897 0.0052204
0.129289 -0.20717 -0.01212
0.0970049 -0.234675 0.0195343
0.0616626 -0.266921 0.0464888
0.0336986 -0.282564 0.0637154
-0.00317954 -0.21603 0.0331495
-0.00176464 -0.21658 0.0214875
-0.0116802 -0.181626 -0.0278955
-0.0182471 -0.142504 -0.0696605
0.127099 -0.172948 -0.0783236
0.155071 -0.0844411 -0.178441
0.183506 0.0307914 -0.275745
0.20744 0.0979316 -0.320884
0.243185 0.148467 -0.299438
0.273894 0.169783 -0.292422
0.300298 0.153575 -0.282312
0.311267 0.0919937 -0.252214
0.316683 -0.0181351 -0.220489
0.308428 -0.0789117 -0.160873
0.294066 -0.105971 -0.0800328
0.270603 -0.18804 0.0313757
0.241932 -0.239357 0.100027
0.20057 -0.226602 0.0715807
0.162638 -0.263259 0.103603
0.124651 -0.299979 0.121965
0.0949237 -0.317883 0.133122
0.0576844 -0.249436 0.101027
0.0585982 -0.249067 0.088439
0.0478131 -0.210507 0.0397399
0.0393642 -0.166063 -0.0047
0.104348 -0.159645 -0.0776403
0.126453 -0.0770236 -0.168076
0.150169 0.0322833 -0.257506
0.172809 0.0954534 -0.308564
0.206329 0.140487 -0.293229
0.238407 0.160854 -0.295181
0.267796 0.148296 -0.289283
0.283986 0.0962153 -0.256649
0.290887 -0.00172975 -0.20967
0.28389 -0.0499459 -0.129266
0.268782 -0.0666531 -0.0248288
0.242051 -0.144786 0.0972914
0.208961 -0.196506 0.169818
0.163658 -0.191218 0.136083
0.122138 -0.228965 0.16724
0.083 -0.271483 0.176434
0.0539097 -0.296275 0.181657
0.020265 -0.23938 0.155029
0.0238632 -0.24367 0.142137
0.0171548 -0.21216 0.0994134
0.0132184 -0.171887 0.0555922
0.0659398 -0.138953 -0.0659626
0.080314 -0.0636108 -0.144519
0.097467 0.0363723 -0.224767
0.115833 0.0914363 -0.279153
0.147262 0.127591 -0.271993
0.179929 0.143657 -0.284563
0.212054 0.132262 -0.286516
0.232646 0.0877531 -0.254624
0.243814 0.0015245 -0.201993
0.240953 -0.0348045 -0.108215
0.229193 -0.0411912 0.012941
0.205152 -0.113401 0.141316
0.174528 -0.162253 0.21547
0.133881 -0.159786 0.178511
0.0944333 -0.195131 0.209308
0.0596968 -0.239329 0.213564
0.0350887 -0.268124 0.215971
0.00756561 -0.222208 0.196294
0.0128058 -0.231456 0.183426
0.00892976 -0.208264 0.145577
0.00740734 -0.173452 0.101317
0.0119148 -0.103318 -0.0453552
0.0181335 -0.0397708 -0.107939
0.0284474 0.0442733 -0.177552
0.0407746 0.08598 -0.233612
0.0718711 0.107243 -0.245584
0.105622 0.114688 -0.277037
0.141677 0.101884 -0.296191
0.167929 0.0653831 -0.268857
0.187998 -0.00582609 -0.2277
0.193892 -0.0271191 -0.131328
0.191335 -0.0196966 -0.00316093
0.178237 -0.0821912 0.126025
0.158889 -0.124457 0.204492
0.132946 -0.122838 0.180235
0.101661 -0.15021 0.214639
0.0764847 -0.191195 0.222885
0.0592577 -0.221184 0.228356
0.0395588 -0.189061 0.215669
0.0434258 -0.20281 0.200801
0.038791 -0.191062 0.163665
0.0347229 -0.165068 0.11521
-0.0350422 -0.0892939 -0.00535902
-0.037434 -0.0302143 -0.0632998
-0.0349538 0.0451949 -0.131266
-0.0305264 0.0757436 -0.190021
-0.00150099 0.0868294 -0.203302
0.0309414 0.0860377 -0.239541
0.0693095 0.0688778 -0.265724
0.0983742 0.0317255 -0.244083
0.130024 -0.035221 -0.205876
0.146769 -0.0537823 -0.11024
0.157131 -0.0435263 0.0199353
0.157471 -0.10111 0.149443
0.152613 -0.137973 0.225726
0.144844 -0.129687 0.19467
0.125912 -0.151051 0.23014
0.113358 -0.185838 0.23803
0.10493 -0.212742 0.244946
0.0929669 -0.182314 0.233509
0.0958306 -0.197723 0.217634
0.0895733 -0.188812 0.180359
0.0817785 -0.16433 0.131553
-0.0757354 -0.0645957 0.041201
-0.0841775 -0.0116481 -0.0127725
-0.0878083 0.0517224 -0.081557
-0.0908671 0.0696786 -0.142851
-0.0629624 0.0685587 -0.169711
-0.0320136 0.0573673 -0.21611
0.00761983 0.0340738 -0.251205
0.0381519 -0.00439817 -0.235115
0.0803149 -0.0659779 -0.207207
0.107263 -0.0813783 -0.117613
0.130452 -0.0686333 0.00794487
0.14599 -0.12115 0.132963
0.158324 -0.152545 0.210969
0.171552 -0.13889 0.188662
0.16727 -0.153324 0.229583
0.168178 -0.179414 0.241983
0.168959 -0.2004 0.248925
0.163658 -0.171301 0.234393
0.164136 -0.185282 0.219707
0.154387 -0.178284 0.177537
0.140265 -0.155492 0.122954
-0.0947248 -0.0435533 0.0958954
-0.105296 0.0049038 0.0405853
-0.111804 0.0582558 -0.0339768
-0.119696 0.0664938 -0.0987999
-0.0924208 0.0552819 -0.136573
-0.0635169 0.0353137 -0.189266
-0.0247284 0.00618309 -0.230131
0.00407045 -0.034733 -0.219249
0.0522299 -0.0919177 -0.197684
0.085487 -0.10636 -0.115392
0.117235 -0.0938349 0.00323965
0.144091 -0.143244 0.12247
0.170192 -0.171202 0.201432
0.199789 -0.153454 0.188215
0.208224 -0.163777 0.235806
0.22003 -0.182161 0.251524
0.228054 -0.196555 0.258646
0.226901 -0.16687 0.235122
0.225078 -0.177643 0.220009
0.211411 -0.169621 0.169911
0.191099 -0.146831 0.109797
-0.0858575 -0.0215058 0.151118
-0.0956077 0.0213104 0.0873695
-0.103015 0.0635516 0.00161791
-0.112893 0.0644977 -0.0651648
-0.0893576 0.0423019 -0.1182
-0.0646533 0.0143982 -0.170253
-0.0303228 -0.0193809 -0.207605
-0.00743459 -0.0622467 -0.199051
0.0414231 -0.111107 -0.177306
0.0756971 -0.123822 -0.104149
0.110718 -0.112988 0.000808768
0.141176 -0.1609 0.108545
0.173851 -0.188466 0.188152
0.211402 -0.170107 0.194761
0.228468 -0.181545 0.245887
0.24716 -0.194732 0.265295
0.259699 -0.203634 0.268946
0.261599 -0.17349 0.221893
0.25937 -0.181499 0.205204
0.244527 -0.171061 0.143245
0.221759 -0.146934 0.0781429
-0.0802945 -0.0135275 0.180248
-0.0878636 0.0275591 0.112997
-0.0934265 0.0649797 0.0222757
-0.102005 0.0616846 -0.0429954
-0.0784625 0.0368712 -0.0935068
-0.0566393 0.00595027 -0.142148
-0.0275458 -0.0303852 -0.178321
-0.0102606 -0.0736197 -0.171258
0.0309627 -0.121455 -0.156272
0.059733 -0.135576 -0.0893852
0.0901102 -0.127173 0.00918521
0.120458 -0.17342 0.111508
0.154807 -0.199466 0.187431
0.195164 -0.180279 0.1887
0.215769 -0.190132 0.239281
0.236319 -0.199157 0.261618
0.249608 -0.203347 0.266146
0.2503 -0.170057 0.214313
0.247554 -0.173507 0.196553
0.233294 -0.158674 0.12949
0.211635 -0.132899 0.0616266
-0.0702813 -0.00834657 0.170274
-0.0773543 0.0275324 0.095737
-0.0828396 0.0581141 0.000103002
-0.0896564 0.0525964 -0.0576323
-0.0735151 0.0245045 -0.110925
-0.0588963 -0.00780128 -0.151561
-0.0393804 -0.0440678 -0.179763
-0.0305933 -0.0851884 -0.169537
-0.00368864 -0.125946 -0.158629
0.014445 -0.138071 -0.102688
0.0351584 -0.130695 -0.0205677
0.0598312 -0.174645 0.0717525
0.0896088 -0.200281 0.14214
0.125951 -0.183568 0.149703
0.145774 -0.194791 0.195473
0.164944 -0.201491 0.218304
0.177269 -0.202476 0.220913
0.178473 -0.168233 0.163636
0.177666 -0.167624 0.144209
0.168372 -0.149385 0.0749741
0.154315 -0.122796 0.0104091
-0.0607858 -0.00786825 0.144722
-0.0680739 0.0216518 0.0687457
-0.0737402 0.0452909 -0.0247721
-0.0779434 0.0380001 -0.0729927
-0.0698478 0.00910645 -0.12363
-0.0613548 -0.0219412 -0.155292
-0.0500677 -0.0555685 -0.17622
-0.0470468 -0.0928348 -0.163301
-0.0346989 -0.125262 -0.158067
-0.0270697 -0.134337 -0.115084
-0.0166746 -0.126864 -0.0514471
0.00105903 -0.167144 0.0286887
0.0238391 -0.19146 0.0909634
0.0525039 -0.177765 0.103041
0.0683331 -0.189469 0.14135
0.0832657 -0.194477 0.163425
0.0923651 -0.193506 0.165459
0.0924359 -0.160076 0.107604
0.0933653 -0.15686 0.0882291
0.0891476 -0.136764 0.0218664
0.0832713 -0.110432 -0.0355756
0.0320259 -0.110643 0.0244452
0.0431905 -0.0601489 0.00637017
0.0570464 0.000306815 -0.0099711
0.0588667 0.0332726 -0.0227282
0.0860458 0.0735722 0.0261598
0.0979046 0.0932395 0.037411
0.104835 0.0860079 0.039224
0.108678 0.0379182 0.0480279
0.100759 -0.0498958 0.0549668
0.0922365 -0.123624 0.0741341
0.0836099 -0.176907 0.0976386
0.0859821 -0.205646 0.102248
0.0858394 -0.205513 0.0637366
0.0814582 -0.157378 -0.0565741
0.0727459 -0.166104 -0.0809206
0.0583142 -0.173245 -0.101367
0.0423178 -0.180544 -0.0897135
0.0218003 -0.149181 -0.0564188
0.0178463 -0.151426 -0.0218616
0.0104873 -0.130732 0.0132879
0.00612943 -0.103033 0.0354104
0.0498555 -0.119143 0.0254142
0.0648153 -0.0636807 -0.00820174
0.0832563 0.00384484 -0.0409608
0.0871404 0.0424901 -0.0571522
0.123687 0.0856228 -0.017108
0.141821 0.107232 -0.00479722
0.154205 0.0987694 0.00184705
0.160153 0.0456845 0.0175847
0.156777 -0.0534535 0.0265446
0.150096 -0.132922 0.0477792
0.143769 -0.186909 0.0716122
0.148454 -0.21718 0.0738517
0.151059 -0.213906 0.0314177
0.147712 -0.158074 -0.0943696
0.14013 -0.162063 -0.121008
0.124461 -0.168931 -0.143746
0.10541 -0.17895 -0.135106
0.0782202 -0.148763 -0.111811
0.0711689 -0.156186 -0.0763915
0.0571246 -0.1396 -0.0443906
0.0457448 -0.11377 -0.0211199
0.0660746 -0.127398 0.0235367
0.0823404 -0.0691003 -0.0278049
0.101878 0.00291878 -0.0775875
0.106583 0.0460163 -0.094815
0.146908 0.0905721 -0.0615474
0.168503 0.114326 -0.0451054
0.184347 0.106235 -0.0321271
0.191453 0.0512227 -0.0107196
0.190565 -0.0548479 -0.00067972
0.185137 -0.135573 0.0186976
0.180659 -0.186375 0.0377703
0.187534 -0.216826 0.0371113
0.193595 -0.21012 -0.00646709
0.192716 -0.148315 -0.130509
0.189846 -0.146777 -0.157597
0.176573 -0.154007 -0.179856
0.157909 -0.168222 -0.174289
0.127055 -0.141815 -0.165102
0.117047 -0.156358 -0.13297
0.0962376 -0.145761 -0.109317
0.0771904 -0.123378 -0.0874877
0.0814682 -0.130648 0.00231984
0.0977333 -0.0712765 -0.0537162
0.11516 0.00339238 -0.106025
0.119108 0.0485212 -0.122031
0.153036 0.0942502 -0.0882448
0.171142 0.118121 -0.0677015
0.184352 0.10829 -0.0510923
0.188253 0.0487266 -0.0285508
0.186642 -0.0635273 -0.0200394
0.180623 -0.146473 -0.0085724
0.177585 -0.195971 -0.00049873
0.183278 -0.225776 -0.00700724
0.190009 -0.215584 -0.0481503
0.189309 -0.147365 -0.158478
0.190702 -0.140198 -0.183254
0.181063 -0.144809 -0.200432
0.166152 -0.158552 -0.19476
0.139626 -0.132345 -0.190076
0.12891 -0.149297 -0.162144
0.107402 -0.141688 -0.142731
0.0858839 -0.121785 -0.122343
0.103865 -0.138632 0.0196744
0.118089 -0.0787409 -0.0587866
0.130933 -0.000901537 -0.133119
0.133269 0.048598 -0.149105
0.154748 0.0929903 -0.115232
0.164187 0.12039 -0.0876891
0.167929 0.115286 -0.0670429
0.164926 0.061445 -0.0439593
0.14987 -0.0473002 -0.0415348
0.135557 -0.11851 -0.0387844
0.126459 -0.1528 -0.0377607
0.129848 -0.182498 -0.0395449
0.135882 -0.172845 -0.0707862
0.133935 -0.108839 -0.165358
0.137063 -0.100763 -0.180477
0.128567 -0.113773 -0.187022
0.115295 -0.136814 -0.179878
0.088087 -0.118347 -0.200326
0.0796921 -0.142726 -0.179945
0.0593612 -0.143083 -0.186483
0.0402298 -0.130152 -0.182897
0.127383 -0.138764 0.0118865
0.141126 -0.0769155 -0.0755445
0.150402 0.00460741 -0.157833
0.152248 0.0565419 -0.173863