# vtk DataFile Version 2.0
Func
ASCII
DATASET RECTILINEAR_GRID
DIMENSIONS 21 21 21
X_COORDINATES 21 double
-4.7619
-4.28571
-3.80952
-3.33333
-2.85714
-2.38095
-1.90476
-1.42857
-0.952381
-0.47619
0
0.47619
0.952381
1.42857
1.90476
2.38095
2.85714
3.33333
3.80952
4.28571
4.7619
Y_COORDINATES 21 double
-4.7619
-4.28571
-3.80952
-3.33333
-2.85714
-2.38095
-1.90476
-1.42857
-0.952381
-0.47619
0
0.47619
0.952381
1.42857
1.90476
2.38095
2.85714
3.33333
3.80952
4.28571
4.7619
Z_COORDINATES 21 double
-4.7619
-4.28571
-3.80952
-3.33333
-2.85714
-2.38095
-1.90476
-1.42857
-0.952381
-0.47619
0
0.47619
0.952381
1.42857
1.90476
2.38095
2.85714
3.33333
3.80952
4.28571
4.7619
POINT_DATA 9261
SCALARS data double 3
LOOKUP_TABLE default
0.0107334 0.212261 0.0818464
-0.0106907 0.253305 0.0994557
-0.0351011 0.263011 0.0988069
-0.0530188 0.242215 0.0796694
-0.0558399 0.199598 0.0451907
-0.0378137 0.149896 0.00551142
0.00195672 0.116013 -0.0292771
0.0616694 0.104533 -0.0558716
0.132732 0.113223 -0.0746591
0.202512 0.13574 -0.087132
0.262333 0.161405 -0.0959776
0.306106 0.181162 -0.100621
0.33023 0.189376 -0.0972074
0.334218 0.184134 -0.0796502
0.319892 0.167545 -0.0457424
0.29006 0.141955 0.00391667
0.249713 0.110437 0.0618403
0.203588 0.0789877 0.112025
0.156626 0.0475225 0.142067
0.112718 0.0209262 0.146246
0.0756913 0.00227071 0.126262
0.00495704 0.258866 0.100691
-0.0205885 0.303401 0.122646
-0.0501158 0.306801 0.122894
-0.0724897 0.271075 0.100433
-0.0783487 0.208952 0.058664
-0.0609312 0.139846 0.00861508
-0.018862 0.0928609 -0.0370181
0.046268 0.0771385 -0.0737322
0.125773 0.090318 -0.101288
0.205979 0.124726 -0.120228
0.277313 0.166536 -0.13292
0.332737 0.203582 -0.138095
0.36739 0.227526 -0.130957
0.379825 0.234526 -0.104506
0.370411 0.225669 -0.0567963
0.341302 0.202691 0.0104495
0.297328 0.16871 0.0872852
0.243929 0.130776 0.152365
0.187003 0.0902353 0.191
0.132353 0.0534872 0.196047
0.0861734 0.0257849 0.168912
0.000938475 0.304418 0.113179
-0.0255657 0.35068 0.138031
-0.0574771 0.345803 0.13916
-0.0836502 0.293318 0.114783
-0.0953293 0.20984 0.0682189
-0.0850808 0.119435 0.0111477
-0.0513963 0.0573951 -0.0421084
0.00565208 0.0358685 -0.0863363
0.0788113 0.0530023 -0.120392
0.155656 0.10009 -0.143702
0.227549 0.160369 -0.158309
0.28761 0.2184 -0.162384
0.33036 0.262637 -0.150553
0.352889 0.286625 -0.115345
0.353927 0.28926 -0.0556411
0.332987 0.271336 0.0259521
0.294279 0.235824 0.117293
0.242991 0.190784 0.193244
0.185384 0.139916 0.237257
0.128506 0.0917082 0.241283
0.0805414 0.053164 0.20701
0.00493739 0.342431 0.121562
-0.0193014 0.388528 0.14843
-0.0507545 0.374503 0.150314
-0.0803203 0.305305 0.12469
-0.100416 0.201527 0.0748946
-0.103484 0.0914397 0.0140206
-0.087526 0.0156679 -0.0429488
-0.0508935 -0.0110458 -0.0903866
0.00166005 0.00988386 -0.126504
0.0610454 0.0689363 -0.149755
0.121107 0.146776 -0.162439
0.176446 0.225107 -0.16275
0.221875 0.289525 -0.145308
0.253452 0.331174 -0.102507
0.267644 0.346747 -0.0345591
0.261218 0.335673 0.0555064
0.236407 0.300577 0.154495
0.197111 0.250198 0.235677
0.14917 0.190506 0.279891
0.0998684 0.131213 0.279806
0.0578916 0.081409 0.23766
0.0198811 0.368569 0.130142
0.00115622 0.413321 0.158455
-0.0266267 0.390996 0.16006
-0.0577384 0.308123 0.132135
-0.0869184 0.188024 0.0798234
-0.106578 0.0629199 0.0169836
-0.114334 -0.0230938 -0.0404932
-0.106953 -0.0534025 -0.0865675
-0.0859856 -0.0293438 -0.119155
-0.0558338 0.038992 -0.136307
-0.0190404 0.13041 -0.141419
0.0216699 0.224675 -0.133688
0.0624264 0.305435 -0.108697
0.0989793 0.362171 -0.0593819
0.125858 0.389749 0.012628
0.137194 0.386076 0.10392
0.132636 0.353187 0.201712
0.113605 0.300265 0.279683
0.0844789 0.234226 0.318705
0.0513941 0.165903 0.311018
0.0224108 0.106005 0.260083
0.0468478 0.379264 0.141736
0.0363478 0.421761 0.171056
0.0148133 0.39393 0.172064
-0.015707 0.303036 0.142395
-0.0523987 0.17442 0.0884087
-0.0885109 0.04218 0.0248098
-0.121423 -0.0481323 -0.0311581
-0.146452 -0.0793273 -0.0727269
-0.162055 -0.0531482 -0.0975421
-0.167657 0.0200261 -0.103757
-0.161591 0.118231 -0.0963962
-0.143093 0.220703 -0.0767237
-0.113874 0.310545 -0.042458
-0.0777442 0.376716 0.011763
-0.0414091 0.412822 0.0830891
-0.0130054 0.415538 0.168029
0.00440185 0.386052 0.255164
0.00935424 0.332999 0.320738
0.00365926 0.264147 0.347941
-0.00829195 0.190468 0.330048
-0.0200357 0.123785 0.271421
0.0812101 0.372489 0.158571
0.0805592 0.412533 0.189496
0.0672631 0.383082 0.189756
0.0403331 0.291722 0.157551
0.00026117 0.164117 0.10076
-0.0476372 0.034444 0.0350503
-0.100879 -0.0527692 -0.0197268
-0.154268 -0.0814489 -0.0556273
-0.203157 -0.0542239 -0.0702669
-0.242988 0.0184263 -0.0624224
-0.268162 0.114989 -0.0394422
-0.274342 0.215817 -0.00565171
-0.260714 0.305151 0.0382249
-0.230024 0.372806 0.095221
-0.189221 0.411875 0.161586
-0.148176 0.418531 0.234601
-0.112215 0.392776 0.305165
-0.0854243 0.341886 0.352948
-0.0689359 0.274173 0.365075
-0.0603744 0.199662 0.336603
-0.0554873 0.130848 0.272002
0.116719 0.348299 0.175475
0.125852 0.385934 0.207847
0.121555 0.359553 0.207078
0.100317 0.276007 0.172232
0.0610509 0.159416 0.112426
0.0071682 0.0426685 0.0445878
-0.0596339 -0.0336674 -0.00849097
-0.133603 -0.0561375 -0.0377005
-0.208251 -0.0289156 -0.041108
-0.276249 0.0376211 -0.0187666
-0.328868 0.123689 0.0192265
-0.358582 0.212443 0.0650269
-0.362052 0.291013 0.114674
-0.340423 0.351455 0.168915
-0.30004 0.387369 0.224053
-0.251138 0.394639 0.279165
-0.201258 0.372368 0.328557
-0.15671 0.325675 0.35627
-0.12142 0.262646 0.353879
-0.0952806 0.191924 0.31817
-0.0763686 0.126166 0.253217
0.145356 0.30914 0.184145
0.162414 0.344473 0.216207
0.166156 0.325041 0.213808
0.151248 0.256047 0.176925
0.115399 0.159577 0.115863
0.0601604 0.0649108 0.048468
-0.0133797 0.00642529 -0.000623476
-0.0997743 -0.00651233 -0.0217508
-0.191482 0.0198784 -0.0140155
-0.279493 0.0754728 0.0205545
-0.352902 0.143393 0.0691378
-0.401753 0.21107 0.120637
-0.420527 0.269993 0.168392
-0.408614 0.315623 0.211557
-0.371184 0.342975 0.247905
-0.318021 0.347965 0.279251
-0.258125 0.32857 0.304125
-0.199757 0.287648 0.31221
-0.149658 0.232344 0.299522
-0.109985 0.169568 0.263637
-0.0804354 0.110968 0.207394
0.160206 0.259292 0.177612
0.181903 0.291972 0.206093
0.190862 0.28149 0.201222
0.180873 0.231809 0.163943
0.14892 0.161945 0.105155
0.0949602 0.095721 0.0426466
0.0194883 0.0595917 0.000842975
-0.0726393 0.0579466 -0.0110091
-0.173341 0.0824044 0.00648467
-0.272755 0.123398 0.0488931
-0.358706 0.167958 0.101215
-0.419767 0.208832 0.14997
-0.4489 0.242748 0.186821
-0.444033 0.269081 0.210313
-0.409015 0.284706 0.221042
-0.352726 0.285591 0.224278
-0.285202 0.268542 0.223312
-0.216205 0.234229 0.214239
-0.154819 0.188578 0.197221
-0.105304 0.136339 0.16985
-0.0684374 0.0880375 0.132606
0.160623 0.206603 0.151915
0.183443 0.236418 0.173098
0.193786 0.235979 0.165225
0.185442 0.207817 0.130126
0.154984 0.167325 0.0787045
0.101353 0.13186 0.0274484
0.0247591 0.119073 -0.00225032
-0.0704009 0.128234 -0.00276378
-0.175537 0.149142 0.0233766
-0.280181 0.1732 0.0689999
-0.371515 0.192008 0.117779
-0.437537 0.204083 0.1551
-0.4705 0.211568 0.172223
-0.467521 0.217578 0.168192
-0.431438 0.22085 0.147587
-0.370261 0.217146 0.119547
-0.294864 0.202053 0.0923499
-0.216194 0.174312 0.0691876
-0.145103 0.138695 0.0535155
-0.0877655 0.0979668 0.0421647
-0.0456154 0.0610314 0.0325275
0.150351 0.15874 0.108614
0.171154 0.1864 0.11926
0.178916 0.195858 0.108243
0.168091 0.18858 0.0781947
0.135091 0.176132 0.0394081
0.0785994 0.169219 0.0057313
-0.000953787 0.176864 -0.00713717
-0.0992019 0.193873 0.00583026
-0.206808 0.209005 0.0400908
-0.312655 0.215148 0.0857078
-0.403714 0.208747 0.126025
-0.468218 0.193919 0.146505
-0.498547 0.17769 0.138985
-0.491831 0.16609 0.10364
-0.450432 0.159236 0.049422
-0.381769 0.152163 -0.0108136
-0.297408 0.139185 -0.0639378
-0.209181 0.117396 -0.0993211
-0.12906 0.0907208 -0.110912
-0.0648726 0.0605566 -0.102855
-0.0184859 0.0342324 -0.0810123
0.136541 0.1209 0.0549445
0.153252 0.147429 0.0534218
0.155412 0.165515 0.0395934
0.138557 0.176 0.016779
0.0992576 0.186758 -0.00587772
0.0367234 0.202417 -0.0181773
-0.0478137 0.224508 -0.0116704
-0.149548 0.244628 0.0158315
-0.258194 0.25159 0.0582334
-0.362008 0.240314 0.103275
-0.448209 0.21195 0.134855
-0.506004 0.175467 0.13922
-0.528701 0.14166 0.108985
-0.514218 0.118191 0.0451378
-0.46495 0.105718 -0.0397801
-0.387948 0.0980075 -0.130076
-0.295139 0.0880085 -0.208282
-0.198766 0.0714474 -0.256354
-0.111221 0.051771 -0.265852
-0.0415506 0.0298615 -0.241216
0.007949 0.0118394 -0.190902
0.127364 0.0955467 0.00126185
0.139395 0.12221 -0.011966
0.134495 0.147231 -0.0280348
0.109711 0.17098 -0.043037
0.062248 0.198036 -0.0493179
-0.0074566 0.228102 -0.0406298
-0.0968463 0.256991 -0.0156459
-0.200372 0.274674 0.0256802
-0.306958 0.271153 0.0766599
-0.404655 0.243886 0.123559
-0.481552 0.198262 0.151399
-0.528548 0.147006 0.14719
-0.540583 0.103296 0.103586
-0.516958 0.0750586 0.021117
-0.460379 0.0625205 -0.0860035
-0.377499 0.0577429 -0.200804
-0.279979 0.0522111 -0.302342
-0.179753 0.040472 -0.365616
-0.0888237 0.0257397 -0.379579
-0.0168663 0.00929882 -0.347492
0.0328924 -0.00342964 -0.278843
0.125366 0.0810558 -0.0418434
0.13302 0.108845 -0.063788
0.121878 0.13883 -0.0807154
0.0902556 0.171259 -0.0883793
0.0364074 0.207713 -0.0808659
-0.037547 0.244143 -0.0555808
-0.127626 0.272553 -0.0167048
-0.227733 0.282935 0.0350056
-0.326683 0.267365 0.093581
-0.413194 0.226096 0.145058
-0.476995 0.16808 0.175946
-0.511251 0.108628 0.173557
-0.512915 0.0620445 0.129442
-0.482773 0.0354788 0.0420552
-0.423685 0.0279612 -0.0751678
-0.341467 0.0296518 -0.205691
-0.246539 0.0305307 -0.326304
-0.149628 0.0239635 -0.406613
-0.0615589 0.0128882 -0.432659
0.00802062 -0.000292112 -0.404663
0.0548089 -0.0104401 -0.33148
0.132595 0.0724336 -0.0668698
0.137329 0.1019 -0.0928692
0.122636 0.135364 -0.10895
0.0876937 0.172745 -0.111046
0.0323285 0.212661 -0.0951477
-0.0398383 0.249016 -0.0612065
-0.123517 0.271848 -0.0162561
-0.212526 0.271635 0.0399361
-0.296697 0.24342 0.103526
-0.366549 0.190206 0.161833
-0.414236 0.12377 0.202982
-0.435515 0.0609798 0.213821
-0.429452 0.0163376 0.183407
-0.398083 -0.00427311 0.106389
-0.343944 -0.00335521 -0.00716405
-0.271373 0.00770152 -0.143009
-0.188464 0.0173373 -0.277103
-0.103804 0.0175221 -0.375347
-0.026333 0.0104514 -0.420396
0.0349699 -0.000237121 -0.408022
0.0748 -0.009291 -0.344367
0.146248 0.0660046 -0.0721424
0.150053 0.0968992 -0.0975351
0.135335 0.13252 -0.111593
0.101914 0.171537 -0.111036
0.0512918 0.210513 -0.0936002
-0.0116773 0.242117 -0.0603609
-0.0810202 0.25627 -0.0182066
-0.151 0.244586 0.0356881
-0.213557 0.204747 0.100688
-0.262107 0.142371 0.166654
-0.291855 0.0711841 0.223236
-0.301249 0.00865438 0.256132
-0.291311 -0.0312 0.25091
-0.264787 -0.0438632 0.197242
-0.223308 -0.0332973 0.0998264
-0.169116 -0.0118593 -0.0308363
-0.107109 0.00731755 -0.171201
-0.0430495 0.0151838 -0.285311
0.0164978 0.0130369 -0.352811
0.0638033 0.00517786 -0.363871
0.0928927 -0.0031762 -0.321027
0.155064 0.0586703 -0.061161
0.158693 0.0902159 -0.0824998
0.146175 0.126544 -0.0940432
0.117841 0.164818 -0.0932589
0.0768449 0.199951 -0.0791162
0.0286377 0.22446 -0.0529876
-0.0206538 0.229017 -0.0195437
-0.0665306 0.206974 0.0269803
-0.103955 0.158158 0.0889534
-0.12984 0.0902277 0.159206
-0.142477 0.0178622 0.228842
-0.142595 -0.0417867 0.282792
-0.132519 -0.0756919 0.303873
-0.114983 -0.0805388 0.277698
-0.0903013 -0.0613865 0.203233
-0.0583815 -0.0307973 0.0869078
-0.0207589 -0.00276932 -0.0493586
0.0195039 0.0131533 -0.170585
0.058246 0.0165678 -0.255303
0.0891819 0.0124572 -0.289086
0.106141 0.00524392 -0.270664
0.152049 0.0482334 -0.0407897
0.15636 0.0788789 -0.0555858
0.148077 0.113891 -0.0637782
0.128166 0.149345 -0.0636234
0.100612 0.179304 -0.0556011
0.070668 0.196649 -0.0403497
0.0433578 0.193465 -0.0193377
0.0215768 0.164396 0.0153025
0.00749595 0.1112 0.0686168
0.000795964 0.0423169 0.136501
0.000685194 -0.0277172 0.211635
0.00506477 -0.0828515 0.279061
0.0112511 -0.111275 0.320386
0.0172524 -0.110414 0.318901
0.0243747 -0.0857514 0.269007
0.0347075 -0.0492303 0.174103
0.0491886 -0.0145391 0.0531438
0.0671859 0.0082459 -0.0631537
0.0864321 0.0174353 -0.154135
0.102191 0.0176167 -0.20313
0.108598 0.0121892 -0.20571
0.13508 0.0350909 -0.0186923
0.139825 0.062855 -0.0263126
0.136071 0.0945153 -0.0305391
0.125291 0.125666 -0.0309796
0.111738 0.150061 -0.029023
0.099498 0.161394 -0.0241885
0.0921532 0.153162 -0.0156844
0.090294 0.12123 0.00577845
0.0936656 0.0686848 0.0465664
0.0999336 0.00359511 0.105292
0.106483 -0.0606493 0.176297
0.110766 -0.109776 0.245938
0.110583 -0.13341 0.296621
0.105262 -0.129347 0.311536
0.097311 -0.102781 0.282755
0.090021 -0.0643554 0.211767
0.0864654 -0.0265639 0.113213
0.0874876 0.000888312 0.0117776
0.0921174 0.0149541 -0.0735213
0.0968263 0.0190725 -0.126666
0.0965616 0.0159204 -0.142477
0.105105 0.0198127 -0.00134284
0.109236 0.0427483 -0.00265677
0.109195 0.0693516 -0.00325011
0.106454 0.0955078 -0.00355493
0.104395 0.115355 -0.00536353
0.105571 0.123398 -0.00775452
0.111522 0.114214 -0.00822619
0.121432 0.0842413 0.00178539
0.133556 0.0367728 0.0284359
0.144685 -0.0209857 0.0722987
0.152186 -0.0775126 0.129483
0.153783 -0.120548 0.189047
0.148224 -0.141004 0.23643
0.135855 -0.136511 0.257238
0.11963 -0.111258 0.244002
0.103252 -0.0739491 0.196225
0.0900959 -0.0356904 0.124822
0.0818917 -0.00553611 0.0471649
0.0783752 0.0121598 -0.0214381
0.0770626 0.0195728 -0.0676793
0.0741096 0.0186244 -0.0872335
-0.0103385 0.212686 0.0973644
-0.0366983 0.248034 0.119749
-0.064284 0.249466 0.123072
-0.0817802 0.220738 0.105076
-0.0798097 0.17422 0.0691057
-0.0537336 0.124469 0.0250622
-0.00332284 0.0972956 -0.0153848
0.0678561 0.0974104 -0.0481846
0.150194 0.119128 -0.0732837
0.22847 0.151768 -0.0914529
0.292732 0.181856 -0.105113
0.336583 0.199445 -0.113046
0.356897 0.200219 -0.110462
0.354613 0.185353 -0.0898815
0.333073 0.16003 -0.0491094
0.29644 0.128747 0.0110334
0.250572 0.0953093 0.081495
0.200564 0.0657269 0.143175
0.151498 0.0380217 0.180749
0.106749 0.0151698 0.186571
0.0701203 -6.31967e-05 0.161428
-0.0236631 0.260215 0.121887
-0.0553026 0.296126 0.151146
-0.0888731 0.286353 0.157159
-0.111271 0.23691 0.136865
-0.112582 0.1657 0.0937389
-0.0870374 0.0927494 0.0383592
-0.0339468 0.0513566 -0.0146009
0.0432717 0.0487494 -0.0596396
0.134943 0.078413 -0.0958428
0.22459 0.126912 -0.122839
0.30112 0.176726 -0.14259
0.356985 0.214271 -0.152997
0.387699 0.232559 -0.148125
0.393422 0.231392 -0.119363
0.376188 0.215308 -0.0645844
0.339713 0.18835 0.0141906
0.28986 0.154365 0.105311
0.232633 0.120023 0.183746
0.17404 0.0845704 0.231851
0.119349 0.0521349 0.239784
0.0746038 0.0277651 0.207844
-0.0349212 0.30794 0.137415
-0.0681559 0.34204 0.171517
-0.104771 0.31803 0.180257
-0.131919 0.24475 0.159623
-0.14046 0.145606 0.112807
-0.123755 0.0463652 0.0509692
-0.0811 -0.012087 -0.00978086
-0.0140401 -0.0195362 -0.0632082
0.0694093 0.0173086 -0.107406
0.154381 0.0827151 -0.140768
0.230774 0.155213 -0.164844
0.29119 0.217348 -0.176764
0.330486 0.258894 -0.169756
0.347232 0.277392 -0.134461
0.341704 0.275569 -0.0693846
0.314804 0.256692 0.0227689
0.271817 0.224201 0.128234
0.218563 0.185164 0.217918
0.161336 0.140873 0.272504
0.10642 0.0972926 0.280808
0.0617647 0.0612949 0.243071
-0.036877 0.349229 0.145133
-0.0678524 0.379787 0.182477
-0.104181 0.340731 0.193347
-0.135692 0.243483 0.173041
-0.154762 0.117003 0.124395
-0.154459 -0.00748259 0.0603441
-0.13344 -0.0823603 -0.00281335
-0.0912388 -0.0947455 -0.0587438
-0.0328718 -0.0515303 -0.105086
0.0309357 0.0296385 -0.139133
0.0929692 0.123795 -0.162844
0.147598 0.210089 -0.173281
0.190063 0.275401 -0.163447
0.217712 0.31513 -0.123464
0.228065 0.330065 -0.0531704
0.219178 0.321985 0.0447741
0.193908 0.293753 0.155997
0.15654 0.252262 0.250122
0.112602 0.200662 0.305116
0.0685038 0.145937 0.31026
0.0324608 0.0972439 0.266329
-0.0260421 0.379899 0.149506
-0.050904 0.4065 0.188414
-0.0830112 0.354202 0.199415
-0.116557 0.236943 0.177594
-0.146916 0.0876266 0.127733
-0.166819 -0.0571664 0.0638617
-0.174493 -0.145165 0.00273986
-0.167338 -0.161446 -0.0494477
-0.146867 -0.113404 -0.0903838
-0.117849 -0.0200709 -0.117072
-0.0831908 0.0909947 -0.13299
-0.0452582 0.196612 -0.136336
-0.00724565 0.281722 -0.121009
0.027684 0.340256 -0.0773172
0.0545656 0.371246 -0.00641696
0.0682697 0.374814 0.0889385
0.068619 0.352819 0.195664
0.0567995 0.311708 0.28454
0.0364591 0.255064 0.333436
0.0125185 0.190897 0.331069
-0.00753156 0.130217 0.279568
-0.000205783 0.396648 0.155483
-0.0156584 0.419451 0.194676
-0.0404514 0.358132 0.204428
-0.0735709 0.227955 0.18048
-0.11341 0.0648328 0.12909
-0.15337 -0.0915364 0.065887
-0.191405 -0.186418 0.00887252
-0.222821 -0.204166 -0.0354225
-0.245822 -0.153123 -0.0648349
-0.258895 -0.0531681 -0.0769439
-0.259965 0.0668377 -0.0775749
-0.247163 0.182988 -0.0675364
-0.221161 0.279801 -0.0431472
-0.184803 0.350905 0.00356104
-0.144779 0.394101 0.0705725
-0.108965 0.408023 0.155348
-0.0809863 0.393291 0.246955
-0.0631521 0.354814 0.319803
-0.0550103 0.296421 0.354538
-0.0537307 0.226341 0.341056
-0.0535333 0.156647 0.282413
0.0361515 0.397182 0.16819
0.032277 0.417272 0.208232
0.01721 0.352624 0.215702
-0.0117344 0.219103 0.187447
-0.0559546 0.0536396 0.131462
-0.110106 -0.103101 0.0655283
-0.172198 -0.196641 0.0110485
-0.236759 -0.212401 -0.0242384
-0.298556 -0.160153 -0.0386468
-0.351165 -0.0601738 -0.0309788
-0.387955 0.0588141 -0.0104235
-0.402811 0.174056 0.0180955
-0.393518 0.271486 0.0544854
-0.36188 0.345882 0.10395
-0.315018 0.394484 0.163774
-0.263119 0.415355 0.23274
-0.212446 0.407366 0.303029
-0.168554 0.3733 0.353345
-0.134377 0.316739 0.369348
-0.109518 0.245188 0.343091
-0.0905169 0.171137 0.277807
0.077191 0.380572 0.182894
0.0853167 0.39924 0.223667
0.0811816 0.337754 0.228098
0.0591341 0.211423 0.194376
0.0160328 0.0556633 0.132099
-0.044746 -0.0892389 0.0617475
-0.122168 -0.17249 0.00913034
-0.209831 -0.182231 -0.0166285
-0.300601 -0.130268 -0.0147209
-0.384794 -0.0368499 0.0140704
-0.452271 0.0708973 0.0566078
-0.493226 0.173271 0.103099
-0.502667 0.259505 0.149152
-0.480712 0.326948 0.197007
-0.433841 0.373322 0.244188
-0.372848 0.396339 0.291857
-0.306608 0.393586 0.336555
-0.24309 0.364899 0.362148
-0.188373 0.313299 0.359603
-0.144469 0.244784 0.3235
-0.110657 0.171866 0.256769
0.1158 0.347875 0.190934
0.13427 0.366178 0.230619
0.140178 0.31329 0.231309
0.126036 0.202808 0.192498
0.0874132 0.0680974 0.125481
0.0258313 -0.0537251 0.0529114
-0.0582823 -0.118274 0.00388914
-0.158716 -0.118028 -0.0115792
-0.267362 -0.0672967 0.00592228
-0.372803 0.0140179 0.0528877
-0.462629 0.10176 0.112336
-0.524423 0.180921 0.169924
-0.550934 0.245588 0.217546
-0.540406 0.296859 0.255197
-0.497948 0.333868 0.282208
-0.433892 0.354341 0.303098
-0.358595 0.354435 0.319434
-0.282019 0.331369 0.321644
-0.213133 0.286924 0.305902
-0.156255 0.225613 0.267892
-0.112521 0.158543 0.209348
0.144334 0.302282 0.184934
0.169735 0.320069 0.22023
0.182577 0.278422 0.216744
0.174757 0.189881 0.175336
0.141301 0.084408 0.10824
0.0821651 -0.00627531 0.0386806
-0.00271731 -0.0463743 -0.00342863
-0.107693 -0.0337243 -0.00826401
-0.224223 0.0148212 0.021837
-0.340307 0.0801206 0.0803334
-0.442402 0.142145 0.147276
-0.516765 0.191705 0.205028
-0.554807 0.228618 0.243135
-0.55328 0.25815 0.260578
-0.51579 0.281308 0.260012
-0.451616 0.295834 0.250036
-0.371929 0.296592 0.237593
-0.28794 0.278652 0.220199
-0.210763 0.242543 0.198936
-0.146583 0.190901 0.169611
-0.0975848 0.133527 0.131301
0.161719 0.250443 0.159891
0.190222 0.26696 0.1872
0.205518 0.237812 0.180002
0.199945 0.174207 0.140307
0.168559 0.101971 0.0804751
0.110439 0.0460653 0.02227
0.0255244 0.0323864 -0.00728445
-0.0809212 0.0575171 -5.74365e-05
-0.199861 0.102555 0.0395272
-0.319084 0.14962 0.101725
-0.424655 0.183589 0.164974
-0.502702 0.20156 0.210241
-0.544369 0.209143 0.22659
-0.545807 0.215422 0.213543
-0.509615 0.223247 0.178493
-0.444085 0.230071 0.1345
-0.36087 0.229629 0.0938843
-0.271908 0.215489 0.0616796
-0.189654 0.187347 0.0426924
-0.121696 0.146259 0.0317572
-0.0706173 0.100282 0.0243746
0.170579 0.199943 0.116618
0.198564 0.215235 0.132998
0.211459 0.198251 0.123311
0.202758 0.159181 0.0904326
0.167997 0.119397 0.0459051
0.106317 0.0966718 0.00788509
0.0184009 0.106918 -0.00319703
-0.0902988 0.141808 0.0177725
-0.209803 0.181403 0.0642936
-0.327585 0.20966 0.123633
-0.429755 0.21672 0.174215
-0.503306 0.205704 0.197546
-0.540196 0.187258 0.183811
-0.537099 0.173165 0.134135
-0.496468 0.167546 0.0612119
-0.42608 0.166952 -0.0176836
-0.337951 0.164166 -0.0852728
-0.244386 0.151917 -0.128926
-0.158393 0.129788 -0.141202
-0.0884822 0.0980491 -0.128645
-0.0371778 0.0633299 -0.0995798
0.176274 0.156142 0.0621397
0.201041 0.170525 0.0665105
0.207521 0.16404 0.0561124
0.190738 0.146165 0.0343324
0.147158 0.133884 0.0109859
0.0769696 0.138247 -0.000987567
-0.0175969 0.166228 0.00987505
-0.130218 0.205995 0.0452068
-0.249538 0.237951 0.0970565
-0.36257 0.248519 0.150459
-0.455864 0.232993 0.185239
-0.518076 0.199573 0.184737
-0.54295 0.162499 0.140872
-0.528784 0.134608 0.05626
-0.478744 0.120295 -0.051942
-0.400631 0.114598 -0.163318
-0.306637 0.109437 -0.256418
-0.209062 0.0973222 -0.311237
-0.120729 0.0784837 -0.318199
-0.0505162 0.0534535 -0.284526
-0.000676974 0.0280722 -0.221592
0.184408 0.122142 0.0070302
0.204439 0.136357 0.000532284
0.202051 0.138493 -0.00888276
0.174005 0.137039 -0.0176737
0.118232 0.144925 -0.0183976
0.0368387 0.167603 -0.00382096
-0.0657125 0.20493 0.0283344
-0.181714 0.243356 0.0769011
-0.298413 0.265084 0.133643
-0.402589 0.259668 0.182544
-0.481772 0.22714 0.205751
-0.526946 0.179523 0.188671
-0.534442 0.132968 0.124321
-0.505042 0.0996434 0.0154307
-0.443229 0.0830463 -0.118599
-0.357137 0.0761624 -0.256093
-0.258767 0.0699933 -0.372526
-0.159918 0.0572148 -0.44107
-0.0724723 0.0392421 -0.449994
-0.00507231 0.0179164 -0.405491
0.039906 -0.000972478 -0.320047
0.195289 0.0966664 -0.0379661
0.210178 0.111373 -0.0518495
0.199167 0.120059 -0.0583296
0.160378 0.130347 -0.054302
0.093609 0.151057 -0.0351801
0.00340062 0.183252 0.00101352
-0.103404 0.221564 0.0492221
-0.217905 0.252789 0.107014
-0.326619 0.262153 0.16741
-0.416866 0.242822 0.214931
-0.477872 0.198972 0.234546
-0.503373 0.14513 0.213209
-0.492607 0.0978087 0.143644
-0.448996 0.0671512 0.0267181
-0.37826 0.0547362 -0.118882
-0.288616 0.0511916 -0.272301
-0.19112 0.0466152 -0.407295
-0.0964383 0.0337923 -0.491941
-0.0148905 0.0153871 -0.512041
0.0456268 -0.00461788 -0.470383
0.082559 -0.0198769 -0.378644
0.21045 0.0760702 -0.0651867
0.221201 0.0919407 -0.0814177
0.203986 0.10596 -0.0835549
0.158005 0.123989 -0.0694118
0.0852958 0.151 -0.0374332
-0.00742462 0.185172 0.0105403
-0.111222 0.218313 0.0654257
-0.216324 0.237848 0.125768
-0.309779 0.233339 0.187498
-0.380552 0.201762 0.237489
-0.420314 0.150803 0.263604
-0.425686 0.096409 0.253203
-0.398804 0.0543785 0.196797
-0.345436 0.0321828 0.0910869
-0.272015 0.0289344 -0.0492
-0.186276 0.0333342 -0.206248
-0.0974797 0.0340803 -0.353747
-0.0144471 0.0238619 -0.456275
0.0546059 0.00612606 -0.496531
0.102942 -0.0130421 -0.472068
0.127882 -0.0264725 -0.390993
0.226113 0.058077 -0.072309
0.234466 0.0752917 -0.0862695
0.214784 0.0935551 -0.0838046
0.167225 0.115829 -0.0643872
0.0960352 0.144055 -0.0290159
0.00958721 0.174521 0.0186559
-0.0818978 0.198185 0.0693773
-0.168572 0.204267 0.124739
-0.239199 0.186094 0.184866
-0.285635 0.144622 0.240376
-0.302663 0.0902049 0.281681
-0.289736 0.0392136 0.295335
-0.251505 0.00598657 0.268031
-0.19527 -0.00478517 0.190552
-0.127335 0.00362536 0.071093
-0.0541977 0.0183677 -0.0773966
0.0175236 0.0266145 -0.229835
0.0813564 0.0212193 -0.348968
0.13148 0.00614591 -0.414645
0.162706 -0.011254 -0.41749
0.172363 -0.0235176 -0.361015
0.229692 0.0411107 -0.0629899
0.236232 0.0595561 -0.0720355
0.216845 0.0808389 -0.0660626
0.1726 0.104837 -0.045994
0.109625 0.13089 -0.0147319
0.0370355 0.154452 0.024051
-0.0346569 0.166894 0.0636011
-0.0964706 0.159825 0.108968
-0.140253 0.129973 0.164144
-0.16147 0.0817164 0.22381
-0.158052 0.0270416 0.280489
-0.131676 -0.0181707 0.319947
-0.0885016 -0.0414949 0.325487
-0.0361882 -0.0407021 0.282736
0.0199224 -0.0210783 0.192647
0.0752626 0.00386002 0.0629649
0.126049 0.0203743 -0.0834321
0.167909 0.0217271 -0.210419
0.197387 0.0111973 -0.296679
0.210692 -0.00281642 -0.326949
0.205301 -0.0137088 -0.299947
0.217058 0.0235811 -0.0425676
0.222947 0.0424614 -0.0450556
0.207031 0.0648704 -0.0364144
0.171356 0.088555 -0.0185895
0.122782 0.110808 0.0041276
0.0700496 0.127063 0.0288232
0.0223087 0.129749 0.0527457
-0.0134918 0.112538 0.0837923
-0.0320523 0.0753111 0.128977
-0.0325852 0.0245217 0.186827
-0.0155839 -0.0273934 0.251857
0.0161117 -0.0658278 0.309851
0.0562109 -0.0803711 0.342339
0.0979944 -0.0705385 0.331733
0.138015 -0.0428884 0.273031
0.173547 -0.0105006 0.169988
0.202937 0.0131534 0.0418618
0.223955 0.0212846 -0.0797678
0.234824 0.0165855 -0.174442
0.233045 0.00706582 -0.223959
0.216226 -0.00182505 -0.222939
0.188356 0.00678175 -0.0199276
0.193787 0.0245568 -0.0162397
0.18283 0.0461214 -0.00578696
0.158177 0.0678186 0.00860052
0.12659 0.0857375 0.0219913
0.0950916 0.0957328 0.0329568
0.0707822 0.0914587 0.0415695
0.0576651 0.0682692 0.0577263
0.0579915 0.0287169 0.0899016
0.0705395 -0.0201625 0.139557
0.0928552 -0.0666158 0.203018
0.121942 -0.0979357 0.267301
0.15257 -0.105707 0.314437
0.180112 -0.0904439 0.326214
0.202745 -0.0589857 0.294438
0.219318 -0.0231722 0.220195
0.23037 0.00482734 0.117939
0.23501 0.0186797 0.0126057
0.232635 0.0198834 -0.0770404
0.221604 0.0150162 -0.133113
0.199609 0.00853093 -0.149132
0.145173 -0.00795807 -0.00160941
0.149284 0.00702195 0.0062116
0.143224 0.0258632 0.0169722
0.129611 0.0446173 0.0278528
0.113743 0.0589773 0.0342604
0.100447 0.0653992 0.035472
0.0939015 0.0585205 0.0336242
0.0957412 0.0347256 0.0378187
0.106006 -0.00256344 0.0563546
0.122356 -0.046472 0.0922412
0.142476 -0.086692 0.143459
0.163755 -0.112516 0.199748
0.182774 -0.117031 0.246273
0.196759 -0.100686 0.267295
0.205313 -0.0695123 0.25475
0.208492 -0.0333779 0.207423
0.207588 -0.00319773 0.135638
0.202828 0.0151698 0.0563996
0.194289 0.0218031 -0.0153013
0.180797 0.0214526 -0.0645984
0.160273 0.0174453 -0.0860645
-0.0410963 0.169884 0.116279
-0.0682754 0.189892 0.144598
-0.0934428 0.179079 0.153432
-0.105404 0.14394 0.139352
-0.0963285 0.0994407 0.104561
-0.062895 0.0604887 0.0576145
-0.00656238 0.0504294 0.011687
0.0683745 0.0697467 -0.0278903
0.150974 0.107383 -0.0598122
0.225914 0.148167 -0.0835403
0.28367 0.176407 -0.100649
0.318699 0.183207 -0.109548
0.329501 0.168236 -0.105399
0.318452 0.138395 -0.08077
0.290317 0.103863 -0.0339971
0.250454 0.0716767 0.0337358
0.20453 0.0458941 0.112304
0.15742 0.0296777 0.180659
0.113376 0.017573 0.221647
0.0747034 0.00836026 0.226402
0.044628 0.00247308 0.195293
-0.0620245 0.207775 0.146073
-0.0954602 0.223029 0.183742
-0.127181 0.195508 0.197405
-0.144114 0.135105 0.182934
-0.137864 0.063573 0.142483
-0.104425 0.00155456 0.0846479
-0.044909 -0.0200728 0.0256443
0.0363375 0.000765247 -0.0275329
0.128277 0.0507813 -0.0724637
0.21412 0.110505 -0.107351
0.283152 0.159366 -0.133025
0.328522 0.184895 -0.146798
0.347614 0.185052 -0.14251
0.342162 0.1669 -0.11149
0.316205 0.141028 -0.0519082
0.275103 0.114668 0.0339819
0.224878 0.0918313 0.13338
0.171517 0.0752761 0.219033
0.120097 0.0596956 0.271551
0.0744701 0.0441433 0.279374
0.039523 0.0307594 0.242386
-0.0813017 0.248433 0.162613
-0.117344 0.256518 0.206581
-0.152718 0.208614 0.225042
-0.17486 0.118712 0.212421
-0.1762 0.0154954 0.170642
-0.152004 -0.0740467 0.1084
-0.103448 -0.111008 0.042732
-0.032848 -0.0912639 -0.0186963
0.050406 -0.0297878 -0.072529
0.131235 0.0501262 -0.115826
0.199734 0.123003 -0.148791
0.249055 0.172471 -0.167653
0.275944 0.194149 -0.165047
0.280659 0.194229 -0.131219
0.26565 0.182695 -0.0645335
0.233903 0.166557 0.0323576
0.191095 0.149368 0.144884
0.143213 0.132975 0.241491
0.0954753 0.112961 0.301393
0.0523492 0.0892364 0.311458
0.020179 0.0654178 0.270959
-0.0921841 0.286358 0.166117
-0.127162 0.286467 0.213677
-0.163059 0.217737 0.235589
-0.190356 0.0979459 0.22538
-0.203062 -0.0373 0.184192
-0.196275 -0.154657 0.12278
-0.170389 -0.207741 0.0573778
-0.125676 -0.190438 -0.00469634
-0.0682888 -0.119189 -0.0600375
-0.00903852 -0.020598 -0.104881
0.0450658 0.0754431 -0.139882
0.0888699 0.149059 -0.160943
0.119459 0.193702 -0.160032
0.135865 0.214569 -0.126302
0.137733 0.220645 -0.058932
0.125366 0.21802 0.0399584
0.102099 0.209451 0.155728
0.0724236 0.195306 0.255909
0.0403726 0.171838 0.316981
0.0103281 0.139369 0.325729
-0.0112716 0.103543 0.282008
-0.0918788 0.318386 0.161842
-0.122009 0.31163 0.210157
-0.15449 0.224842 0.232362
-0.184582 0.0794009 0.221468
-0.209459 -0.0839592 0.180741
-0.223869 -0.225346 0.122632
-0.2278 -0.292669 0.0628509
-0.219348 -0.278235 0.00789531
-0.20072 -0.199869 -0.0394495
-0.176608 -0.0867663 -0.0757196
-0.149498 0.0277417 -0.103479
-0.121247 0.121268 -0.119759
-0.0932747 0.185829 -0.117083
-0.0671928 0.225977 -0.0841603
-0.0461732 0.249613 -0.0208375
-0.0330818 0.261558 0.0710797
-0.0279019 0.2633 0.179063
-0.0294061 0.253558 0.272405
-0.0357174 0.228032 0.327373
-0.0440829 0.187659 0.329845
-0.0487869 0.139922 0.281202
-0.0754994 0.342284 0.157153
-0.0976088 0.330549 0.203798
-0.123715 0.231252 0.223393
-0.154234 0.0678895 0.209259
-0.189392 -0.114632 0.16692
-0.224605 -0.272056 0.111252
-0.259677 -0.348504 0.0588077
-0.290646 -0.335747 0.0159657
-0.31583 -0.253157 -0.0153255
-0.333628 -0.131746 -0.0330979
-0.341322 -0.00690332 -0.0430795
-0.336491 0.0980279 -0.0453599
-0.318126 0.174954 -0.034897
-0.28767 0.228676 -0.00179493
-0.250315 0.266241 0.0539707
-0.211922 0.291335 0.13124
-0.176235 0.303842 0.220429
-0.145733 0.299948 0.295209
-0.122021 0.274684 0.334834
-0.104467 0.228974 0.32647
-0.0889511 0.171397 0.272348
-0.0463715 0.354914 0.161076
-0.0581665 0.340835 0.206324