# vtk DataFile Version 2.0
Func
ASCII
DATASET RECTILINEAR_GRID
DIMENSIONS 21 21 21
X_COORDINATES 21 double
-4.7619
-4.28571
-3.80952
-3.33333
-2.85714
-2.38095
-1.90476
-1.42857
-0.952381
-0.47619
0
0.47619
0.952381
1.42857
1.90476
2.38095
2.85714
3.33333
3.80952
4.28571
4.7619
Y_COORDINATES 21 double
-4.7619
-4.28571
-3.80952
-3.33333
-2.85714
-2.38095
-1.90476
-1.42857
-0.952381
-0.47619
0
0.47619
0.952381
1.42857
1.90476
2.38095
2.85714
3.33333
3.80952
4.28571
4.7619
Z_COORDINATES 21 double
-4.7619
-4.28571
-3.80952
-3.33333
-2.85714
-2.38095
-1.90476
-1.42857
-0.952381
-0.47619
0
0.47619
0.952381
1.42857
1.90476
2.38095
2.85714
3.33333
3.80952
4.28571
4.7619
POINT_DATA 9261
SCALARS data double 3
LOOKUP_TABLE default
0.0547062 0.421004 0.193829
0.0549093 0.486564 0.214784
0.0551169 0.480378 0.203149
0.0609343 0.405196 0.170871
0.0763364 0.278407 0.132085
0.104263 0.131698 0.107146
0.139924 0.00522506 0.10652
0.180617 -0.0887023 0.119902
0.215259 -0.147598 0.132781
0.232675 -0.167177 0.138315
0.229425 -0.152974 0.13398
0.206735 -0.107851 0.127765
0.169356 -0.0363916 0.129889
0.123418 0.05016 0.144407
0.0756284 0.135743 0.164793
0.0317537 0.201707 0.177178
-0.00529838 0.232972 0.16838
-0.033549 0.224922 0.136106
-0.0517182 0.186907 0.0878096
-0.0588193 0.134944 0.0348476
-0.056858 0.084226 -0.00646566
0.0637146 0.466497 0.230186
0.0787434 0.536813 0.249892
0.0985341 0.525717 0.231017
0.126482 0.437585 0.187377
0.162363 0.295363 0.136884
0.20576 0.13477 0.101782
0.248821 0.000693774 0.0975712
0.287317 -0.093971 0.112373
0.310208 -0.148483 0.129007
0.307601 -0.159741 0.140102
0.278989 -0.137099 0.143203
0.229315 -0.085497 0.14757
0.167287 -0.0103893 0.16477
0.101812 0.0766014 0.198785
0.0410324 0.160223 0.239776
-0.00981939 0.22253 0.270125
-0.0486397 0.249183 0.272087
-0.0752596 0.236032 0.2403
-0.0897173 0.193034 0.181481
-0.0917487 0.136947 0.110262
-0.083461 0.0828306 0.0475997
0.0714304 0.475859 0.239029
0.106196 0.543896 0.251894
0.151 0.527055 0.222672
0.205661 0.431252 0.167151
0.264881 0.28401 0.105376
0.323001 0.122693 0.05965
0.368909 -0.00537227 0.0497545
0.397972 -0.0881017 0.0636074
0.400803 -0.12765 0.0829471
0.370453 -0.124571 0.100737
0.310407 -0.0923564 0.114806
0.23014 -0.0385055 0.13474
0.142558 0.0310392 0.17224
0.0593736 0.10624 0.230389
-0.0108507 0.175042 0.296927
-0.0632142 0.222835 0.350441
-0.0984388 0.238256 0.369762
-0.11895 0.218545 0.345078
-0.126902 0.173568 0.28205
-0.122736 0.118671 0.19722
-0.108465 0.0676322 0.114796
0.0796622 0.44772 0.218057
0.135062 0.505417 0.219544
0.205694 0.481549 0.178708
0.285994 0.38374 0.111789
0.366089 0.243704 0.0398775
0.435837 0.0976491 -0.0144023
0.481435 -0.0079274 -0.0297278
0.497388 -0.0640218 -0.0178757
0.476992 -0.0775085 0.00271295
0.417427 -0.0544354 0.0260945
0.32646 -0.012797 0.0504855
0.218048 0.0375257 0.0854723
0.108768 0.0911748 0.142346
0.0124628 0.1418 0.22286
-0.0625074 0.183093 0.313576
-0.112769 0.206611 0.390407
-0.14115 0.20532 0.429122
-0.153133 0.178238 0.414977
-0.153248 0.134089 0.354413
-0.143134 0.0859884 0.264588
-0.123723 0.0441485 0.17045
0.0872467 0.384957 0.164919
0.15945 0.425754 0.152419
0.251582 0.394223 0.101143
0.35241 0.300256 0.026012
0.448565 0.178622 -0.0507467
0.526258 0.0625905 -0.107885
0.570551 -0.0055798 -0.125772
0.574596 -0.0220507 -0.115943
0.534118 -8.09766e-05 -0.0951296
0.450951 0.0472032 -0.0683344
0.336526 0.0973769 -0.0369285
0.208364 0.138785 0.0081888
0.085452 0.167913 0.0773711
-0.0173232 0.183971 0.171354
-0.0923127 0.188429 0.276721
-0.137774 0.180829 0.369583
-0.158809 0.159543 0.424495
-0.162768 0.1249 0.423226
-0.156494 0.0844779 0.371769
-0.142134 0.0472202 0.287727
-0.120253 0.0188574 0.194614
0.0892855 0.297808 0.0839991
0.173386 0.317924 0.0563885
0.280312 0.279455 -0.000742775
0.394974 0.194732 -0.0741942
0.501233 0.100018 -0.1447
0.583214 0.0239316 -0.195461
0.625828 0.00231639 -0.211834
0.62105 0.0328508 -0.203722
0.566953 0.0952738 -0.184142
0.469677 0.168694 -0.15751
0.343117 0.226693 -0.124555
0.206721 0.256286 -0.0777118
0.0802264 0.25646 -0.00849491
-0.0216322 0.233004 0.0836818
-0.0920177 0.19611 0.186915
-0.130787 0.154442 0.280827
-0.144352 0.111987 0.342887
-0.141934 0.0711221 0.355268
-0.131012 0.0361902 0.320738
-0.114833 0.0116612 0.254142
-0.0942128 -0.00216523 0.17571
0.0789135 0.200197 -0.0135475
0.167271 0.198834 -0.0548317
0.279046 0.154513 -0.111219
0.39836 0.0819828 -0.173354
0.507939 0.017131 -0.22606
0.591068 -0.0157767 -0.259852
0.632976 0.0112527 -0.267226
0.62426 0.0896955 -0.2568
0.566219 0.192448 -0.237908
0.467486 0.291116 -0.214595
0.342745 0.356139 -0.186965
0.211323 0.373803 -0.149116
0.0918475 0.34587 -0.0942529
-0.00222591 0.284674 -0.0206197
-0.064876 0.208785 0.0633373
-0.0968737 0.135359 0.142856
-0.105255 0.0738875 0.201041
-0.0996888 0.0284928 0.224369
-0.0874313 -0.000405169 0.210833
-0.0724017 -0.0128608 0.170147
-0.0561722 -0.0139395 0.117973
0.0575345 0.106106 -0.113133
0.140189 0.0849067 -0.163829
0.244835 0.0362562 -0.212635
0.356352 -0.0236745 -0.254762
0.458932 -0.0610799 -0.281966
0.536887 -0.0541215 -0.291782
0.576351 0.0166595 -0.285465
0.568887 0.137355 -0.270502
0.517216 0.275218 -0.252584
0.430759 0.395555 -0.235129
0.322752 0.466797 -0.217586
0.209921 0.47505 -0.195751
0.107854 0.424588 -0.164327
0.0276571 0.333197 -0.119562
-0.0254488 0.226243 -0.0651784
-0.0525259 0.127796 -0.0089551
-0.0596249 0.0516275 0.0391359
-0.0556331 0.0035614 0.0710643
-0.0460579 -0.020194 0.0806669
-0.0350659 -0.0230083 0.0700432
-0.0247028 -0.0156266 0.0487221
0.031382 0.0276575 -0.199604
0.099081 -0.0104677 -0.252984
0.185324 -0.0635584 -0.288137
0.277178 -0.114726 -0.30574
0.361778 -0.131224 -0.30453
0.426683 -0.0936275 -0.288669
0.461041 0.0100351 -0.268593
0.457375 0.161968 -0.250089
0.419209 0.32563 -0.234731
0.355296 0.461988 -0.224723
0.275494 0.538893 -0.218698
0.191745 0.542785 -0.214173
0.114988 0.479702 -0.207407
0.0530305 0.37092 -0.192492
0.00995558 0.245932 -0.168176
-0.0149785 0.132936 -0.134797
-0.0255155 0.0484343 -0.0953565
-0.0278506 -0.000627028 -0.0543746
-0.0247058 -0.0215506 -0.0218903
-0.0195285 -0.0192694 -0.00371288
-0.0146725 -0.00839614 0.00273615
0.0100907 -0.0295625 -0.25797
0.0571105 -0.0808052 -0.306837
0.117013 -0.139561 -0.323842
0.180457 -0.18662 -0.315362
0.238953 -0.191432 -0.287542
0.284602 -0.136355 -0.250764
0.310482 -0.0151083 -0.222337
0.310756 0.152872 -0.20491
0.28924 0.32997 -0.195212
0.252865 0.475559 -0.193292
0.206998 0.558302 -0.197016
0.157529 0.565012 -0.205946
0.109845 0.502032 -0.218315
0.0678938 0.391303 -0.226628
0.034078 0.263211 -0.225013
0.00829859 0.147077 -0.206606
-0.00993085 0.0605439 -0.168354
-0.0226675 0.0114495 -0.11481
-0.0292235 -0.00947992 -0.059816
-0.0312765 -0.00691079 -0.0178253
-0.0310306 0.00273269 0.00644005
0.00784875 -0.0634761 -0.279457
0.0328243 -0.124414 -0.31741
0.062873 -0.189059 -0.314983
0.0931011 -0.23684 -0.283881
0.12028 -0.239803 -0.236905
0.141804 -0.181361 -0.189206
0.155347 -0.0589054 -0.161464
0.157344 0.108788 -0.15161
0.15168 0.285928 -0.151079
0.142797 0.433257 -0.15722
0.131254 0.521601 -0.167375
0.116527 0.538138 -0.183407
0.0981315 0.487888 -0.205768
0.075937 0.39036 -0.226128
0.0500291 0.273445 -0.234937
0.0208891 0.164543 -0.218943
-0.00826081 0.0808605 -0.170767
-0.0344721 0.0312124 -0.0996698
-0.0535899 0.00674075 -0.0229324
-0.0645517 0.00495683 0.036459
-0.0683936 0.0102515 0.0665125
0.0352869 -0.0774747 -0.262373
0.0417323 -0.143911 -0.285168
0.0439229 -0.21387 -0.265223
0.0415768 -0.266069 -0.218367
0.0369038 -0.275347 -0.162503
0.0325392 -0.225795 -0.115763
0.0309483 -0.116527 -0.0981801
0.0312278 0.0362525 -0.101737
0.0373601 0.201051 -0.11272
0.0511606 0.342755 -0.125992
0.0689283 0.435603 -0.13904
0.0844204 0.467229 -0.156442
0.0917204 0.439952 -0.181
0.0868558 0.36802 -0.203921
0.0671866 0.273722 -0.212785
0.0334358 0.179753 -0.18864
-0.00772227 0.10145 -0.121316
-0.0484441 0.0491711 -0.0284496
-0.0816203 0.0173115 0.0691929
-0.102988 0.00729683 0.140633
-0.111554 0.00694117 0.16703
0.0927826 -0.0794662 -0.215243
0.0878164 -0.147583 -0.222128
0.0689466 -0.220951 -0.189462
0.0399496 -0.278607 -0.135273
0.00779011 -0.298456 -0.0803986
-0.0205534 -0.265393 -0.0440988
-0.0382998 -0.178865 -0.0423645
-0.0437362 -0.0513074 -0.0610205
-0.0326128 0.0918219 -0.0823321
-0.00529282 0.221689 -0.10001
0.0316557 0.316923 -0.112936
0.0680224 0.36579 -0.128983
0.0937347 0.367024 -0.153172
0.101812 0.327643 -0.17588
0.0869865 0.26219 -0.181846
0.0496471 0.186753 -0.146473
-0.00107357 0.113901 -0.0574123
-0.0537031 0.0563741 0.0581545
-0.09924 0.0143599 0.175545
-0.130628 -0.00578302 0.256524
-0.144569 -0.0112251 0.275978
0.167824 -0.0771953 -0.156558
0.159338 -0.143549 -0.150971
0.128593 -0.216955 -0.11249
0.082279 -0.278207 -0.0591762
0.0306183 -0.308623 -0.0121393
-0.0166978 -0.294437 0.0102087
-0.0498586 -0.234706 -0.00252243
-0.0651765 -0.137765 -0.0312997
-0.0579802 -0.0220783 -0.0566635
-0.0297908 0.0911401 -0.0736119
0.0120349 0.18565 -0.0840954
0.0559171 0.250706 -0.0997054
0.0897702 0.281197 -0.127056
0.105066 0.275975 -0.154626
0.0945636 0.240707 -0.163556
0.0575774 0.183784 -0.123113
0.00406655 0.114623 -0.0183254
-0.0531303 0.0492674 0.115828
-0.104663 -0.00452726 0.250548
-0.142014 -0.0354418 0.341403
-0.159785 -0.0438386 0.357635
0.238909 -0.0752907 -0.103914
0.233267 -0.136379 -0.0919838
0.200002 -0.205217 -0.0551542
0.147052 -0.265543 -0.00901891
0.0858085 -0.302728 0.0271318
0.0267008 -0.305169 0.0373134
-0.0193462 -0.271598 0.0171702
-0.0477627 -0.206743 -0.0116142
-0.0533959 -0.12186 -0.0308624
-0.0375664 -0.0297875 -0.0397176
-0.00614268 0.0592025 -0.0451781
0.0307816 0.136198 -0.0629444
0.0617121 0.192767 -0.100457
0.0783858 0.219521 -0.142985
0.0726648 0.21281 -0.166644
0.0422197 0.172587 -0.133843
-0.00443099 0.104655 -0.0257875
-0.0554595 0.0292159 0.119121
-0.10274 -0.0376954 0.267729
-0.138476 -0.078974 0.37003
-0.156719 -0.0883967 0.390015
0.283154 -0.0741416 -0.0737698
0.283314 -0.126672 -0.0640588
0.2546 -0.185661 -0.0359613
0.204429 -0.239229 -0.00141838
0.14316 -0.277508 0.0245927
0.0796756 -0.291813 0.0299606
0.0238569 -0.281056 0.0147789
-0.0201086 -0.247118 0.000456829
-0.046732 -0.194272 0.000755468
-0.0555861 -0.126769 0.00944399
-0.0488517 -0.0483458 0.0125147
-0.0324711 0.0348034 -0.010172
-0.0146835 0.11185 -0.0660571
-0.00165567 0.165874 -0.135748
-0.00129358 0.18428 -0.188514
-0.0185571 0.15818 -0.178984
-0.0474427 0.0899952 -0.0829268
-0.0798765 0.00365267 0.0629015
-0.110582 -0.0762305 0.220518
-0.134326 -0.126722 0.335506
-0.146598 -0.136326 0.368125
0.285948 -0.0736998 -0.0732124
0.291004 -0.115365 -0.0736293
0.269867 -0.160822 -0.0597773
0.228242 -0.202909 -0.0386572
0.173541 -0.236867 -0.0199931
0.111667 -0.25745 -0.0102287
0.0494172 -0.264329 -0.0076212
-0.010455 -0.257505 0.00587756
-0.0623918 -0.234986 0.0371124
-0.103248 -0.193051 0.0710514
-0.130253 -0.128916 0.0857641
-0.14354 -0.0454473 0.0569636
-0.146013 0.0452592 -0.0220054
-0.140251 0.120224 -0.126449
-0.133188 0.158998 -0.21787
-0.131854 0.144802 -0.243257
-0.133906 0.0767726 -0.172282
-0.137164 -0.0186304 -0.0359826
-0.140632 -0.109365 0.124012
-0.142935 -0.16786 0.251107
-0.141671 -0.177584 0.302363
0.247364 -0.0720939 -0.0920418
0.254194 -0.102023 -0.105225
0.240856 -0.132694 -0.106062
0.210689 -0.161055 -0.0973888
0.167319 -0.187052 -0.0829163
0.113003 -0.20909 -0.0635251
0.0502814 -0.227937 -0.0377208
-0.0207249 -0.242636 0.00666966
-0.0948834 -0.246068 0.0687177
-0.16619 -0.228026 0.126365
-0.22676 -0.180019 0.151701
-0.270429 -0.101529 0.118506
-0.293896 -0.00480126 0.0216866
-0.295622 0.0832833 -0.110459
-0.281128 0.13667 -0.23387
-0.259588 0.132392 -0.291888
-0.232918 0.0665339 -0.250718
-0.205312 -0.0334995 -0.133568
-0.179433 -0.13054 0.0180592
-0.158352 -0.194398 0.14939
-0.141309 -0.20472 0.216592
0.183993 -0.067139 -0.113543
0.189599 -0.0854587 -0.138831
0.182161 -0.101995 -0.152269
0.162647 -0.116762 -0.153072
0.131361 -0.133289 -0.141332
0.0870115 -0.153126 -0.112054
0.0280778 -0.178524 -0.0650954
-0.0473059 -0.208434 0.00594796
-0.13504 -0.232132 0.0928703
-0.226954 -0.23477 0.169005
-0.311435 -0.203326 0.203037
-0.377445 -0.134029 0.168733
-0.416468 -0.0381279 0.0627216
-0.423475 0.0559142 -0.0851363
-0.402612 0.118923 -0.228074
-0.364306 0.123576 -0.310144
-0.3143 0.0629249 -0.296583
-0.261616 -0.0361125 -0.20224
-0.212243 -0.134645 -0.0665129
-0.172306 -0.201279 0.060246
-0.142349 -0.213415 0.135788
0.114078 -0.0573139 -0.123509
0.116933 -0.0654513 -0.156062
0.11353 -0.0704127 -0.177644
0.103398 -0.0739986 -0.18493
0.0842122 -0.081715 -0.174919
0.0518372 -0.0976158 -0.140104
0.00167764 -0.125256 -0.0807896
-0.0698674 -0.163851 0.00494076
-0.159738 -0.20087 0.104431
-0.258837 -0.218993 0.189362
-0.353667 -0.202468 0.228431
-0.430334 -0.145048 0.197221
-0.47691 -0.0562327 0.0937469
-0.486371 0.036309 -0.0531582
-0.461408 0.102992 -0.19813
-0.412637 0.114933 -0.290008
-0.349068 0.0626975 -0.295875
-0.282782 -0.029188 -0.22364
-0.221275 -0.123212 -0.108945
-0.171664 -0.188649 0.00392063
-0.135384 -0.202855 0.0777078
0.0561825 -0.0441999 -0.112618
0.0562709 -0.0449742 -0.144955
0.0553443 -0.0426843 -0.168751
0.0519593 -0.0392383 -0.178919
0.0425933 -0.0408494 -0.170931
0.0214237 -0.0528078 -0.137326
-0.0173126 -0.0794158 -0.0780052
-0.077753 -0.120332 0.00606641
-0.157269 -0.163008 0.101147
-0.2474 -0.189894 0.181159
-0.335203 -0.184866 0.218715
-0.407007 -0.140416 0.19344
-0.450762 -0.0639029 0.10449
-0.459151 0.0204071 -0.0232522
-0.434373 0.084479 -0.1508
-0.385955 0.100733 -0.23553
-0.323011 0.0589567 -0.250209
-0.257961 -0.0201359 -0.198417
-0.198321 -0.103323 -0.109648
-0.15055 -0.162776 -0.019063
-0.116055 -0.177874 0.0425356
0.0674091 0.495897 0.181602
0.071918 0.568704 0.189698
0.0788332 0.558081 0.16615
0.0938062 0.469527 0.125873
0.119843 0.324799 0.0882117
0.157412 0.157196 0.0727386
0.200314 0.015441 0.0877592
0.245081 -0.0885215 0.118164
0.280884 -0.155048 0.144423
0.295316 -0.181136 0.157463
0.285693 -0.172591 0.154378
0.254708 -0.131513 0.145836
0.208942 -0.0613846 0.145343
0.155892 0.0263482 0.159096
0.10368 0.114766 0.180354
0.0586956 0.182194 0.193554
0.022631 0.211032 0.182975
-0.00414563 0.19842 0.145638
-0.0214501 0.156044 0.0895804
-0.0289106 0.101935 0.028968
-0.0295476 0.0538112 -0.0165555
0.072093 0.558615 0.228396
0.0952362 0.63961 0.2359
0.127022 0.623913 0.202342
0.169441 0.520055 0.146322
0.219198 0.356808 0.0920954
0.273548 0.173037 0.0624064
0.322683 0.0236935 0.0717446
0.36172 -0.0792329 0.103116
0.379984 -0.13923 0.13368
0.367375 -0.156015 0.153434
0.325085 -0.139699 0.159697
0.260507 -0.0944407 0.16479
0.185249 -0.0240109 0.183827
0.110339 0.0604252 0.222702
0.0455984 0.143463 0.270287
-0.00338991 0.204191 0.306052
-0.0366204 0.225618 0.30844
-0.0567754 0.205583 0.271043
-0.0659823 0.156431 0.201263
-0.06513 0.0973334 0.11782
-0.0571019 0.04646 0.0461489
0.0740611 0.581314 0.248856
0.120316 0.662652 0.25137
0.181445 0.641115 0.205817
0.25434 0.528313 0.133794
0.329446 0.358913 0.0623198
0.398519 0.174637 0.0158565
0.447415 0.0338547 0.0147421
0.471414 -0.0531566 0.04219
0.461962 -0.0943917 0.0741648
0.413194 -0.0946685 0.100923
0.331409 -0.0691802 0.120316
0.229597 -0.0246832 0.145075
0.124551 0.0353053 0.190286
0.0305801 0.102312 0.260271
-0.0419417 0.165051 0.340451
-0.0883185 0.206517 0.405288
-0.112366 0.213015 0.428523
-0.120415 0.183927 0.398911
-0.117483 0.131328 0.322892
-0.105787 0.0730151 0.221874
-0.0879636 0.0259918 0.125675
0.0759324 0.559403 0.237412
0.145052 0.63144 0.230442
0.234437 0.602671 0.172312
0.334846 0.488035 0.0857601
0.431243 0.327296 -0.00139271
0.51061 0.161738 -0.0628107
0.555965 0.0491737 -0.074888
0.561444 -0.00447746 -0.0533826
0.52203 -0.013857 -0.0225636
0.437122 0.00908932 0.0094264
0.318172 0.0435842 0.0409176
0.183434 0.0804987 0.0845067
0.0540245 0.11787 0.154461
-0.0533278 0.152493 0.252823
-0.128615 0.180326 0.363399
-0.169204 0.191614 0.456927
-0.181536 0.177423 0.503126
-0.175789 0.138957 0.485244
-0.159926 0.0865731 0.410934
-0.137979 0.0354846 0.302687
-0.111311 -0.00140048 0.191497
0.0783538 0.494569 0.187966
0.164455 0.548907 0.168104
0.275557 0.512163 0.0995783
0.396255 0.40285 0.00363915
0.507691 0.264421 -0.091331
0.593413 0.135134 -0.159904
0.635139 0.0682065 -0.178742
0.626103 0.0627884 -0.16282
0.563259 0.0959126 -0.134183
0.451709 0.146882 -0.0995283
0.3069 0.189436 -0.0601452
0.150946 0.212756 -0.00427599
0.00747259 0.217843 0.0808614
-0.105706 0.208921 0.19554
-0.179585 0.191676 0.323533
-0.213303 0.165609 0.435769
-0.215848 0.127847 0.500274
-0.199411 0.0807592 0.496609
-0.1745 0.0326801 0.432233
-0.145909 -0.00616884 0.330164
-0.114573 -0.0284453 0.219604
0.075713 0.39859 0.105941
0.172546 0.43008 0.0721548
0.297118 0.385879 -0.000567551
0.429935 0.288005 -0.0936215
0.549956 0.18165 -0.18289
0.638896 0.0999868 -0.247188
0.678533 0.0888598 -0.267689
0.661305 0.139602 -0.256687
0.585731 0.220527 -0.23145
0.461731 0.301586 -0.197894
0.306958 0.351584 -0.156786
0.145154 0.358514 -0.0986267
0.00019277 0.326993 -0.0132926
-0.11053 0.26971 0.099016
-0.179124 0.203045 0.223615
-0.20629 0.13715 0.335687
-0.201957 0.0753478 0.406991
-0.179891 0.0218433 0.417852
-0.151002 -0.0192036 0.372383
-0.121019 -0.0431855 0.290094
-0.0911086 -0.0494538 0.196508
0.0605088 0.287661 0.00293534
0.159122 0.294406 -0.0435422
0.285431 0.243685 -0.112739
0.420389 0.1603 -0.19111
0.542439 0.0892422 -0.260339
0.63298 0.0584342 -0.306947
0.674653 0.104539 -0.319349
0.657861 0.211303 -0.307482
0.584258 0.338903 -0.284066
0.465728 0.448509 -0.254564
0.319839 0.505124 -0.21937
0.169266 0.496233 -0.171499
0.0357341 0.430185 -0.103268
-0.0652065 0.327809 -0.0135778
-0.126718 0.215516 0.086809
-0.150072 0.11337 0.179668
-0.144996 0.0308073 0.243996
-0.124626 -0.0266241 0.265686
-0.0989597 -0.0592732 0.243482
-0.0737134 -0.0684831 0.190877
-0.0508971 -0.060064 0.127781
0.0336792 0.177873 -0.106085
0.122725 0.161147 -0.161099
0.23729 0.105211 -0.219125
0.360411 0.0365314 -0.272612
0.47405 -0.00282028 -0.311718
0.560855 0.0125538 -0.330923
0.604396 0.108942 -0.328034
0.596137 0.263706 -0.311298
0.538525 0.430758 -0.288783
0.443059 0.564185 -0.26541
0.324464 0.626688 -0.241268
0.201339 0.605864 -0.211933
0.0909911 0.513249 -0.171861
0.00586355 0.376126 -0.11744
-0.0481124 0.228747 -0.0539632
-0.0717491 0.098988 0.00874027
-0.0725924 0.00111793 0.0583897
-0.0615333 -0.0578572 0.0877927
-0.0455021 -0.0829746 0.0911901
-0.0296495 -0.0797902 0.0729315
-0.0164256 -0.0607507 0.0456079
0.00269867 0.082953 -0.203642
0.0714169 0.0455088 -0.260549
0.161382 -0.015794 -0.300648
0.259315 -0.0745308 -0.323742
0.352037 -0.0899347 -0.328353
0.426218 -0.0396026 -0.316776
0.469172 0.0933505 -0.297325
0.472982 0.281961 -0.275892
0.44019 0.476509 -0.255307
0.380041 0.626571 -0.239324
0.302038 0.694494 -0.22755
0.218071 0.668537 -0.218174
0.139245 0.562251 -0.207818
0.0738265 0.406686 -0.190023
0.0266799 0.240495 -0.16423
-0.00168046 0.0959546 -0.131174
-0.0148053 -0.00960711 -0.0941443
-0.0190188 -0.0681125 -0.0561622
-0.0170333 -0.0882532 -0.0274081
-0.0123529 -0.0775879 -0.0128355
-0.00768503 -0.0529841 -0.0083523
-0.0217236 0.0104069 -0.271402
0.0207964 -0.0437075 -0.322355
0.0778739 -0.112131 -0.33948
0.141273 -0.166447 -0.330204
0.204051 -0.168858 -0.302007
0.258314 -0.0994351 -0.264761
0.296143 0.0512705 -0.234789
0.310955 0.254904 -0.213928
0.304952 0.461666 -0.198768
0.283918 0.620121 -0.190709
0.251037 0.694123 -0.188905
0.210241 0.672555 -0.194583
0.16566 0.56895 -0.20706
0.12083 0.414422 -0.217759
0.0791411 0.247904 -0.220614
0.042807 0.102412 -0.207415
0.0133509 -0.0034797 -0.173489
-0.00945841 -0.0605391 -0.121926
-0.0234546 -0.0792855 -0.0677529
-0.0296548 -0.0669692 -0.0263054
-0.0308605 -0.0420929 -0.0023436
-0.0228607 -0.0372058 -0.298981
-0.00709809 -0.104525 -0.336703
0.0140759 -0.180204 -0.329433
0.0380933 -0.235472 -0.291863
0.0649055 -0.236148 -0.239595
0.0928968 -0.16416 -0.188339
0.119652 -0.0152789 -0.158495
0.1407 0.183669 -0.146033
0.15783 0.3865 -0.140682
0.172893 0.5445 -0.1407
0.182642 0.624825 -0.144977
0.182985 0.616855 -0.15801
0.171029 0.531912 -0.182059
0.145489 0.397209 -0.207433
0.107751 0.247763 -0.223636
0.0615675 0.113691 -0.214438
0.0138926 0.0130148 -0.169351
-0.0286953 -0.0434651 -0.0972179
-0.0592568 -0.0654271 -0.0177966
-0.0757023 -0.0573322 0.0431686
-0.0800966 -0.0362174 0.0720266
0.0124231 -0.0619866 -0.284203
0.00681555 -0.137304 -0.303686
-0.0043526 -0.219203 -0.274232
-0.0181985 -0.279471 -0.216429
-0.0280906 -0.287924 -0.152308
-0.0293764 -0.227957 -0.101181
-0.0187472 -0.0982653 -0.0828901
0.00205851 0.0783251 -0.0861284
0.0346599 0.26232 -0.0938876
0.0771917 0.411219 -0.101327
0.120893 0.497101 -0.107716
0.154813 0.509857 -0.121232
0.169795 0.456733 -0.147209
0.160173 0.357462 -0.175409
0.124953 0.239274 -0.19184
0.0689135 0.126027 -0.173091
0.00385016 0.0334471 -0.104796
-0.0573279 -0.025226 -0.00602412
-0.103742 -0.0557036 0.0985385
-0.13009 -0.0573088 0.173193
-0.136892 -0.0425391 0.195781
0.0852193 -0.0721216 -0.236307
0.0678148 -0.150235 -0.236536
0.0333717 -0.235573 -0.190503
-0.0107781 -0.301696 -0.122397
-0.052468 -0.322845 -0.0582681
-0.0817259 -0.283913 -0.0187194
-0.0900274 -0.184778 -0.0190464
-0.0761901 -0.0426784 -0.0404308
-0.0383511 0.111598 -0.060492
0.0187854 0.244398 -0.0726587
0.0827676 0.333871 -0.0778963
0.1381 0.370504 -0.0886882
0.170913 0.356299 -0.1133
0.172225 0.301112 -0.140595
0.138705 0.221792 -0.153131
0.0753634 0.133768 -0.12045
-0.00265351 0.0493642 -0.0251606
-0.077865 -0.0147387 0.102028
-0.136907 -0.0575808 0.231093
-0.171927 -0.0720105 0.317109
-0.181529 -0.0643501 0.329995
0.180885 -0.0759984 -0.175873
0.1617 -0.151937 -0.160799
0.115339 -0.236081 -0.106363
0.0520446 -0.305457 -0.0377324
-0.0124181 -0.339187 0.0181398
-0.0645428 -0.324078 0.0418175
-0.0919833 -0.260168 0.0243199
-0.0911206 -0.158645 -0.0096303
-0.0594923 -0.0405869 -0.0350897
-0.00320165 0.0708293 -0.0464975
0.0641272 0.160622 -0.0483322
0.12554 0.220224 -0.0577352
0.164822 0.246045 -0.0851295
0.171326 0.236981 -0.117298
0.139912 0.198124 -0.132559
0.0747908 0.135274 -0.0930224
-0.00765467 0.0568331 0.0221121
-0.0881445 -0.0160211 0.172667
-0.152736 -0.0737809 0.323457
-0.192452 -0.102811 0.42172
-0.204052 -0.100846 0.43017
0.273231 -0.0790086 -0.121615
0.259903 -0.147941 -0.0985522
0.212635 -0.225028 -0.0448391
0.142579 -0.291966 0.0167553
0.0665907 -0.333591 0.0606722
-0.000551224 -0.33932 0.0703373
-0.04483 -0.309243 0.0437891
-0.061307 -0.249157 0.00891546
-0.0466982 -0.170456 -0.0103931
-0.00672159 -0.0851165 -0.0128931
0.0466167 -0.000480901 -0.00882711
0.0982129 0.076736 -0.0203206
0.132372 0.138066 -0.0590169
0.138762 0.171597 -0.108122
0.111291 0.170332 -0.140172
0.0525056 0.12981 -0.109153
-0.0229717 0.0539394 0.0104087
-0.0966936 -0.0306021 0.174339
-0.155888 -0.105156 0.342488
-0.192887 -0.148369 0.455101
-0.204072 -0.150132 0.468539
0.333966 -0.0821459 -0.0912243
0.329291 -0.13998 -0.07051
0.288576 -0.203936 -0.0263666
0.221999 -0.261666 0.0225624
0.145045 -0.304386 0.055319
0.0709929 -0.324888 0.0595176
0.0130849 -0.323715 0.0382817
-0.0237201 -0.302398 0.0194018
-0.0354288 -0.263299 0.0218472
-0.0254853 -0.207239 0.0390341
-0.00161264 -0.133538 0.052635
0.0258706 -0.0460657 0.0352228
0.0447378 0.043116 -0.0250897
0.0468978 0.112413 -0.106238
0.0261925 0.143488 -0.172884
-0.018039 0.121289 -0.169958
-0.0737902 0.045886 -0.0652609
-0.126916 -0.051541 0.0992733
-0.167918 -0.142575 0.278504
-0.191698 -0.198369 0.407327
-0.196246 -0.202491 0.437332
0.344217 -0.0856749 -0.092393
0.346012 -0.129998 -0.0838046
0.314195 -0.176924 -0.0564642
0.256875 -0.220217 -0.0230013
0.186033 -0.257578 0.00164726
0.111682 -0.285653 0.0113041
0.043867 -0.306 0.010722
-0.0136818 -0.317287 0.0237746
-0.0564458 -0.314157 0.0616059
-0.0844633 -0.287456 0.107534
-0.0995792 -0.228885 0.134004
-0.105534 -0.138826 0.10871
-0.108722 -0.031388 0.0205058
-0.113427 0.0643254 -0.102491
-0.125503 0.120313 -0.216002
-0.147959 0.112669 -0.256
-0.173117 0.0377096 -0.18284
-0.193572 -0.0703452 -0.0311784
-0.204707 -0.174813 0.150671
-0.205408 -0.241112 0.294847
-0.195268 -0.246864 0.349392
0.303401 -0.0879122 -0.113495
0.307153 -0.118431 -0.120811
0.283725 -0.147638 -0.111768
0.23871 -0.174456 -0.0934463
0.179717 -0.202251 -0.0735054
0.112381 -0.231649 -0.0521493
0.0420811 -0.26551 -0.0251574
-0.0302914 -0.301091 0.0241005
-0.10025 -0.327053 0.0975704
-0.164226 -0.326556 0.170455
-0.217787 -0.285009 0.208185
-0.257504 -0.199322 0.176384
-0.282769 -0.0840929 0.0657952
-0.293453 0.0270284 -0.091311
-0.294751 0.0995845 -0.244162
-0.29253 0.103075 -0.324568
-0.284135 0.0305443 -0.28877
-0.26956 -0.0826922 -0.161429
-0.248569 -0.194597 0.0100304
-0.224426 -0.267398 0.159997
-0.197696 -0.27453 0.236099
0.2297 -0.0861932 -0.135878
0.231454 -0.104178 -0.15874
0.214156 -0.11748 -0.166286
0.181032 -0.128732 -0.160422
0.135584 -0.145289 -0.14404
0.078967 -0.171076 -0.111079
0.0116992 -0.21063 -0.059176
-0.0677527 -0.261163 0.0212638
-0.15571 -0.307601 0.123254
-0.245623 -0.328206 0.216666
-0.327995 -0.303894 0.26316
-0.39348 -0.228357 0.22879
-0.435154 -0.1151 0.106537
-0.448997 0.000894922 -0.069665
-0.439503 0.082373 -0.24605
-0.414864 0.0945158 -0.355624
-0.377255 0.0275276 -0.353765
-0.332771 -0.0840812 -0.254831
-0.285246 -0.196936 -0.102995
-0.240863 -0.272263 0.0420519
-0.200934 -0.28167 0.130521
0.145824 -0.0780142 -0.144215
0.143988 -0.0857955 -0.177016
0.131177 -0.0869764 -0.19607
0.109147 -0.0861445 -0.199391
0.0780275 -0.0924562 -0.185627
0.0351433 -0.112335 -0.146278
-0.0229277 -0.151714 -0.0799106
-0.0999726 -0.208418 0.0174936
-0.193305 -0.266021 0.133434
-0.294728 -0.300848 0.235664
-0.391628 -0.291668 0.286394
-0.470783 -0.22989 0.254462
-0.520717 -0.126882 0.134831
-0.535045 -0.0159048 -0.0399411
-0.517012 0.0665132 -0.218077
-0.476065 0.0847702 -0.338661
-0.41912 0.0267456 -0.35999
-0.356354 -0.0759996 -0.287971
-0.293988 -0.182379 -0.161622
-0.23916 -0.255267 -0.0327138
-0.193328 -0.266955 0.0555247
0.0741908 -0.0645974 -0.128759
0.0697638 -0.0654835 -0.162495
0.0610311 -0.0598145 -0.185912
0.0485964 -0.051963 -0.194193
0.0304829 -0.0512032 -0.183651
0.00156608 -0.0651154 -0.146157
-0.0435088 -0.100361 -0.0801979
-0.109481 -0.155649 0.014539
-0.194099 -0.215317 0.124045
-0.289302 -0.256412 0.218653
-0.382077 -0.258309 0.265863
-0.458565 -0.211485 0.240063
-0.50628 -0.124661 0.138012
-0.517788 -0.0265097 -0.0125874
-0.496102 0.0494789 -0.167676
-0.450339 0.0703506 -0.277351
-0.388838 0.0237014 -0.30741
-0.323389 -0.0637481 -0.258803
-0.261518 -0.156432 -0.162973
-0.209288 -0.221394 -0.0603913
-0.167367 -0.234198 0.0142158
0.0741948 0.498465 0.148688
0.0874355 0.56389 0.138388
0.10536 0.545326 0.100186
0.132217 0.451976 0.0528032
0.168516 0.308185 0.0198215
0.211884 0.145765 0.0183165
0.255574 0.0144381 0.0530855
0.296817 -0.0783294 0.103715
0.326108 -0.138409 0.145694
0.332351 -0.166046 0.16722
0.31451 -0.167043 0.165827
0.277002 -0.141182 0.155083
0.22762 -0.0883611 0.151874
0.174782 -0.0169964 0.164528
0.127113 0.0581063 0.18664
0.0901032 0.114905 0.201381
0.0633537 0.134781 0.190605
0.0443517 0.118001 0.150864
0.031533 0.0768011 0.0901533
0.0241672 0.029351 0.0252956
0.0188443 -0.0057615 -0.0221062
0.0739589 0.569391 0.203822
0.106263 0.644696 0.193011
0.149593 0.621237 0.141542
0.203712 0.512406 0.073751
0.262404 0.350514 0.0191991
0.32007 0.173708 -0.000635536
0.366148 0.0384194 0.0260768
0.39696 -0.049063 0.0767165
0.403765 -0.0995553 0.122931
0.378535 -0.117712 0.151738
0.324597 -0.113807 0.161088
0.251464 -0.0890766 0.166679
0.172179 -0.0424486 0.187257
0.0990953 0.0192991 0.230464
0.0423623 0.0839284 0.284562
0.00635531 0.130156 0.326283
-0.0118535 0.13987 0.330394
-0.0188115 0.114215 0.289966
-0.0192017 0.0659763 0.212828
-0.0152876 0.0144544 0.121557
-0.0100061 -0.0210319 0.0446038
0.0668448 0.604005 0.238046
0.120609 0.682359 0.224371
0.1918 0.654064 0.159596
0.273828 0.536437 0.071152
0.354145 0.368916 -0.00736523
0.422167 0.193388 -0.0510058
0.46238 0.0701824 -0.0405569
0.472224 0.00262337 0.00205184
0.445755 -0.0264049 0.0472576
0.379844 -0.0279703 0.0824717
0.283269 -0.0178946 0.10637
0.171428 0.000568186 0.13524
0.0628108 0.0300595 0.187589
-0.026972 0.0679682 0.268657
-0.0871876 0.107118 0.362057
-0.114822 0.130429 0.438164
-0.117435 0.122894 0.465622
-0.105929 0.0871051 0.432791
-0.0884053 0.03509 0.347214
-0.0688473 -0.0151609 0.23499
-0.0496724 -0.0455685 0.130182
0.0576284 0.594934 0.241472
0.130741 0.66713 0.221008
0.226015 0.633196 0.14325
0.330821 0.514691 0.0369838
0.427137 0.356701 -0.0636628
0.499979 0.201764 -0.129739
0.531523 0.110044 -0.13703
0.517983 0.079416 -0.105616
0.457774 0.0845019 -0.0650325
0.35333 0.105969 -0.0259724
0.218646 0.121916 0.010892
0.0743291 0.127258 0.0616828
-0.0568114 0.127478 0.143667
-0.156923 0.126771 0.258848
-0.216047 0.126333 0.388296
-0.233151 0.116523 0.497539
-0.218844 0.0869211 0.550277
-0.188356 0.041549 0.529216
-0.15285 -0.010046 0.444064
-0.11821 -0.0528834 0.322634
-0.0857403 -0.0730367 0.200672
0.0491772 0.542057 0.204072
0.134632 0.599675 0.173455
0.246125 0.559671 0.0860148
0.365351 0.447849 -0.0311185
0.470967 0.313309 -0.143927
0.545533 0.196338 -0.223008
0.570185 0.152856 -0.242801
0.540227 0.173078 -0.221681
0.456381 0.222031 -0.186629
0.326607 0.270807 -0.146498
0.168559 0.291613 -0.101543
0.00620718 0.278194 -0.0367554
-0.135548 0.24016 0.0631245
-0.238229 0.19058 0.197572
-0.293239 0.141449 0.347106
-0.3012 0.0925846 0.477015
-0.274966 0.0393105 0.548924
-0.231603 -0.0137845 0.542138
-0.184628 -0.0602422 0.466638
-0.140699 -0.0906426 0.351217
-0.100618 -0.0968305 0.229631
0.036794 0.455772 0.129872
0.12804 0.493284 0.0884296
0.247473 0.447693 -0.000772966
0.373282 0.348492 -0.114696
0.483049 0.246936 -0.223841
0.558456 0.178716 -0.302346
0.581139 0.192503 -0.328016
0.545295 0.270127 -0.31554
0.453082 0.367054 -0.286536
0.316572 0.444554 -0.2486
0.154801 0.46966 -0.201787
-0.00754048 0.435418 -0.134047
-0.146095 0.356029 -0.033553
-0.243479 0.254222 0.0981759
-0.292509 0.153505 0.243133