# vtk DataFile Version 2.0
Func
ASCII
DATASET RECTILINEAR_GRID
DIMENSIONS 21 21 21
X_COORDINATES 21 double
-4.7619
-4.28571
-3.80952
-3.33333
-2.85714
-2.38095
-1.90476
-1.42857
-0.952381
-0.47619
0
0.47619
0.952381
1.42857
1.90476
2.38095
2.85714
3.33333
3.80952
4.28571
4.7619
Y_COORDINATES 21 double
-4.7619
-4.28571
-3.80952
-3.33333
-2.85714
-2.38095
-1.90476
-1.42857
-0.952381
-0.47619
0
0.47619
0.952381
1.42857
1.90476
2.38095
2.85714
3.33333
3.80952
4.28571
4.7619
Z_COORDINATES 21 double
-4.7619
-4.28571
-3.80952
-3.33333
-2.85714
-2.38095
-1.90476
-1.42857
-0.952381
-0.47619
0
0.47619
0.952381
1.42857
1.90476
2.38095
2.85714
3.33333
3.80952
4.28571
4.7619
POINT_DATA 9261
SCALARS data double 3
LOOKUP_TABLE default
-0.152536 -0.0788325 -0.241199
-0.171326 -0.113744 -0.356201
-0.176697 -0.142132 -0.463839
-0.173573 -0.157711 -0.544599
-0.166385 -0.154442 -0.580281
-0.159705 -0.129103 -0.559532
-0.157327 -0.0864925 -0.48916
-0.161259 -0.0345317 -0.38062
-0.16897 0.0163128 -0.25262
-0.174253 0.0578224 -0.128308
-0.17181 0.0853639 -0.0229025
-0.157649 0.0989852 0.0548094
-0.130229 0.102719 0.103295
-0.0915966 0.103329 0.12602
-0.046759 0.104577 0.130019
-0.00257547 0.109094 0.121522
0.0354656 0.115704 0.105842
0.0628436 0.118614 0.0853816
0.0772197 0.114477 0.0593609
0.079454 0.0995006 0.033828
0.072718 0.0770066 0.0112176
-0.181808 -0.0700579 -0.27243
-0.20703 -0.103073 -0.404056
-0.217669 -0.128891 -0.529523
-0.219145 -0.140582 -0.6271
-0.21662 -0.132501 -0.676657
-0.214731 -0.101811 -0.663827
-0.21785 -0.0550824 -0.595371
-0.228395 -0.0013289 -0.483263
-0.243838 0.047818 -0.346938
-0.256862 0.083219 -0.211614
-0.260904 0.100647 -0.0943012
-0.250967 0.101373 -0.00524679
-0.224655 0.0913963 0.052789
-0.183 0.0802886 0.0825636
-0.130413 0.0737206 0.090823
-0.0733719 0.0759721 0.0840158
-0.0191928 0.0857691 0.06799
0.0254313 0.0965446 0.0473203
0.0562429 0.102312 0.0227749
0.0719758 0.0964152 0.000745662
0.0750277 0.0801125 -0.0157682
-0.183476 -0.0612158 -0.253386
-0.213098 -0.089394 -0.382229
-0.229055 -0.1085 -0.509197
-0.236857 -0.112013 -0.613454
-0.241331 -0.0953682 -0.675915
-0.246997 -0.0568348 -0.680694
-0.258441 -0.00515397 -0.632658
-0.278205 0.0497507 -0.5408
-0.303847 0.0953569 -0.422285
-0.327957 0.12198 -0.299983
-0.34373 0.126168 -0.189553
-0.345391 0.110533 -0.101205
-0.329214 0.0829799 -0.0389729
-0.294715 0.0556159 -0.00181694
-0.243562 0.036565 0.0149295
-0.18093 0.0323283 0.0156525
-0.114499 0.0423249 0.00585257
-0.0528217 0.0599741 -0.00779979
-0.00240658 0.0763068 -0.0238566
0.0326273 0.0821868 -0.0363071
0.0527982 0.0756236 -0.0416682
-0.153189 -0.0572908 -0.183196
-0.183617 -0.0817181 -0.290908
-0.203488 -0.0940494 -0.40327
-0.217327 -0.0880049 -0.503476
-0.229205 -0.0604804 -0.574681
-0.243328 -0.0114291 -0.604002
-0.263797 0.0477596 -0.5914
-0.293398 0.106446 -0.54072
-0.329647 0.151229 -0.463396
-0.366338 0.171421 -0.376344
-0.397097 0.163923 -0.290427
-0.415856 0.132074 -0.21404
-0.417605 0.0851147 -0.152171
-0.399659 0.0373688 -0.106271
-0.36027 9.51108e-05 -0.0756755
-0.301871 -0.0174716 -0.0598225
-0.231703 -0.014029 -0.0554899
-0.1587 0.00567 -0.0550684
-0.0908324 0.0301281 -0.0574455
-0.035231 0.04809 -0.0581061
0.00539331 0.0539486 -0.0530537
-0.0884188 -0.0637399 -0.0797866
-0.115213 -0.087669 -0.152327
-0.136541 -0.0952946 -0.23612
-0.155833 -0.0805895 -0.319691
-0.175206 -0.0408077 -0.393805
-0.19834 0.0210609 -0.448796
-0.228128 0.0913155 -0.479964
-0.266509 0.158364 -0.483988
-0.311548 0.20804 -0.464211
-0.358874 0.22787 -0.428184
-0.403266 0.21421 -0.379102
-0.439244 0.169982 -0.321859
-0.461239 0.104687 -0.261979
-0.464678 0.0341158 -0.204201
-0.444166 -0.0268346 -0.153427
-0.399219 -0.0658557 -0.114322
-0.335086 -0.0779063 -0.0877209
-0.260112 -0.0639143 -0.0680151
-0.182367 -0.0366726 -0.0542713
-0.11153 -0.00824521 -0.0446521
-0.0531834 0.0117551 -0.0348756
-0.00308707 -0.0830043 0.0287906
-0.0213279 -0.110081 -0.000511342
-0.0396955 -0.116089 -0.045351
-0.0606832 -0.0950085 -0.102327
-0.0845691 -0.0442633 -0.170688
-0.113581 0.0309102 -0.245994
-0.148968 0.114567 -0.319681
-0.191738 0.194455 -0.381023
-0.240201 0.255813 -0.423684
-0.291927 0.283729 -0.443289
-0.343549 0.272768 -0.434
-0.391219 0.223806 -0.396327
-0.430074 0.144918 -0.336324
-0.454762 0.051977 -0.262986
-0.457405 -0.0367148 -0.187882
-0.4342 -0.104964 -0.12153
-0.387598 -0.142656 -0.0697422
-0.323345 -0.144499 -0.0316997
-0.248908 -0.121678 -0.00578968
-0.174331 -0.0862592 0.00834567
-0.107001 -0.0506631 0.0149613
0.0864369 -0.110721 0.109186
0.0792532 -0.143733 0.117541
0.0663213 -0.151224 0.110405
0.0460687 -0.127207 0.0832657
0.0199958 -0.0687557 0.0285331
-0.0119812 0.0174372 -0.0546024
-0.0488647 0.113847 -0.157376
-0.0903744 0.20859 -0.262964
-0.1348 0.28636 -0.355472
-0.181405 0.329734 -0.419566
-0.229255 0.330402 -0.441031
-0.277339 0.285581 -0.416292
-0.323107 0.200061 -0.352071
-0.362065 0.088053 -0.261853
-0.385666 -0.0296931 -0.163652
-0.387149 -0.132528 -0.0729414
-0.365524 -0.204188 -4.97167e-05
-0.322979 -0.231219 0.0495365
-0.264942 -0.220095 0.0792044
-0.200088 -0.181483 0.0891751
-0.135952 -0.129991 0.0837281
0.167863 -0.142293 0.146292
0.171683 -0.182851 0.180823
0.164464 -0.194894 0.204311
0.14558 -0.172362 0.205521
0.118209 -0.111507 0.170549
0.0851581 -0.0195473 0.0930395
0.0501394 0.0859571 -0.0212542
0.0149416 0.194191 -0.15118
-0.0184173 0.290299 -0.272689
-0.0505134 0.35469 -0.362259
-0.0832787 0.375469 -0.399657
-0.119565 0.344762 -0.3788
-0.160578 0.26213 -0.307761
-0.204187 0.138077 -0.204381
-0.242771 -0.00567792 -0.0916911
-0.267524 -0.144813 0.0119725
-0.273637 -0.255916 0.0939247
-0.259146 -0.315271 0.1437
-0.226926 -0.322633 0.167172
-0.182627 -0.285612 0.166213
-0.132692 -0.219035 0.145247
0.234678 -0.168447 0.141522
0.246931 -0.21603 0.189809
0.243112 -0.234292 0.23445
0.223638 -0.217188 0.259611
0.193442 -0.16047 0.246495
0.158777 -0.0706741 0.184082
0.126342 0.0360265 0.0736932
0.0996856 0.151429 -0.0607043
0.0813064 0.262563 -0.189324
0.0696387 0.348831 -0.283978
0.0596876 0.39474 -0.321925
0.0442396 0.386515 -0.297209
0.0174582 0.316877 -0.220506
-0.0218154 0.19054 -0.113599
-0.067784 0.0281562 -0.00210588
-0.110261 -0.143534 0.0957565
-0.141108 -0.294516 0.168483
-0.154409 -0.389433 0.204947
-0.15003 -0.418887 0.214462
-0.130351 -0.386821 0.201086
-0.100291 -0.307398 0.169045
0.284731 -0.180679 0.104137
0.301221 -0.231614 0.154641
0.296636 -0.255181 0.209703
0.272691 -0.246018 0.250704
0.236222 -0.200005 0.256304
0.197086 -0.122069 0.212943
0.165076 -0.0253457 0.117316
0.145518 0.086251 -0.00494438
0.14145 0.20364 -0.120919
0.15051 0.307246 -0.201619
0.164848 0.378891 -0.225907
0.173117 0.398815 -0.191357
0.164907 0.351764 -0.112998
0.135736 0.234666 -0.01596
0.0895288 0.0646579 0.0745811
0.0373404 -0.131128 0.143962
-0.0101419 -0.317331 0.186249
-0.0441221 -0.446535 0.196113
-0.0617765 -0.499242 0.187182
-0.0631062 -0.474602 0.165584
-0.0519937 -0.385642 0.134513
0.321258 -0.177133 0.0569667
0.337866 -0.226824 0.10239
0.328688 -0.253631 0.158451
0.296813 -0.253514 0.205802
0.251066 -0.223277 0.222711
0.204415 -0.165893 0.195217
0.1694 -0.0901606 0.117462
0.152827 0.00573811 0.0163375
0.158053 0.118633 -0.0744276
0.181858 0.232325 -0.128346
0.214098 0.327536 -0.129689
0.240317 0.379188 -0.0828271
0.24672 0.363551 -0.00879656
0.226577 0.268161 0.064602
0.182912 0.104145 0.115698
0.12763 -0.103607 0.136458
0.0730779 -0.316365 0.130475
0.0294898 -0.475411 0.104645
0.0015417 -0.551367 0.0773046
-0.0102463 -0.537495 0.0556308
-0.0098289 -0.444674 0.040662
0.350787 -0.160186 0.0191803
0.365259 -0.204285 0.0566251
0.349701 -0.231487 0.106639
0.30849 -0.239835 0.150893
0.252277 -0.227865 0.169051
0.196046 -0.196849 0.148799
0.154355 -0.150617 0.0851355
0.134937 -0.0807495 0.00641809
0.141225 0.0171799 -0.0544631
0.169059 0.132606 -0.075744
0.206973 0.247134 -0.0498683
0.239054 0.331687 0.00958319
0.250071 0.354336 0.0744529
0.232776 0.292202 0.114932
0.190615 0.148188 0.115268
0.13647 -0.0578227 0.0760932
0.0834816 -0.286166 0.0129092
0.0418457 -0.468774 -0.0510519
0.0169307 -0.567515 -0.0928145
0.0077709 -0.568573 -0.105667
0.00907539 -0.479607 -0.0919035
0.379158 -0.135003 0.00159214
0.392035 -0.170067 0.031197
0.37142 -0.194659 0.0706469
0.322619 -0.209383 0.103851
0.257528 -0.215211 0.113212
0.19169 -0.212352 0.089577
0.140669 -0.199818 0.0322603
0.11248 -0.1625 -0.0285013
0.110542 -0.0875046 -0.0615787
0.12999 0.0218945 -0.0508507
0.15937 0.150104 0.00188977
0.183261 0.265805 0.0730269
0.187179 0.32996 0.127253
0.165042 0.309192 0.133493
0.121638 0.196816 0.0830576
0.0707182 0.00545676 -0.0143216
0.0253297 -0.226796 -0.131209
-0.00555168 -0.425582 -0.227892
-0.0170333 -0.545834 -0.277519
-0.0129647 -0.565828 -0.27527
-0.000759306 -0.489252 -0.227641
0.408845 -0.108531 0.00389871
0.42338 -0.132976 0.026798
0.402242 -0.151986 0.0531381
0.350859 -0.169726 0.0697465
0.281279 -0.189923 0.0626353
0.208028 -0.212535 0.0266871
0.146548 -0.232692 -0.0322693
0.104645 -0.229436 -0.082073
0.0859825 -0.181548 -0.0936895
0.085889 -0.0841996 -0.0563679
0.0946393 0.0514027 0.0193779
0.0993075 0.193644 0.101033
0.0879888 0.298153 0.147526
0.0567683 0.322007 0.127363
0.0115381 0.248628 0.0384494
-0.0340014 0.0819586 -0.101707
-0.0679882 -0.143752 -0.256278
-0.0835667 -0.351385 -0.373522
-0.0773262 -0.491212 -0.423825
-0.0561497 -0.533658 -0.404833
-0.0295219 -0.476241 -0.327689
0.435543 -0.0879386 0.017495
0.455629 -0.101555 0.0346048
0.439812 -0.112976 0.0472288
0.392196 -0.129327 0.0453733
0.32375 -0.157859 0.0189313
0.246997 -0.199092 -0.0330893
0.1764 -0.246049 -0.0981851
0.119017 -0.273298 -0.143069
0.0792182 -0.252443 -0.141027
0.0537292 -0.170707 -0.085672
0.0360645 -0.0338697 0.00576769
0.01726 0.127983 0.0948441
-0.0109826 0.267324 0.137632
-0.050309 0.333446 0.103617
-0.0948173 0.300568 -0.00401167
-0.132373 0.163596 -0.162433
-0.153787 -0.0484397 -0.329787
-0.154358 -0.259127 -0.449579
-0.132561 -0.416516 -0.492331
-0.0975948 -0.482267 -0.459155
-0.0600203 -0.447221 -0.365429
0.453993 -0.0774141 0.0302587
0.483375 -0.0815242 0.0413931
0.478312 -0.0834199 0.0412545
0.440727 -0.093955 0.0224582
0.379195 -0.123827 -0.0214406
0.30316 -0.174671 -0.0878649
0.225299 -0.238807 -0.159621
0.152671 -0.289144 -0.203658
0.0908055 -0.291674 -0.19569
0.0395049 -0.226734 -0.132217
-0.00314493 -0.0944748 -0.034243
-0.041358 0.0780117 0.0579468
-0.0799005 0.242402 0.101303
-0.119157 0.34264 0.0680418
-0.155374 0.345493 -0.0355266
-0.180869 0.238058 -0.183965
-0.189177 0.04311 -0.335522
-0.178304 -0.16658 -0.438168
-0.148692 -0.337175 -0.467042
-0.109631 -0.422852 -0.426
-0.0711389 -0.409721 -0.33212
0.457182 -0.0765885 0.0328977
0.497299 -0.0733092 0.0372532
0.505757 -0.0658863 0.0261941
0.482089 -0.0678933 -0.00558109
0.431494 -0.0933649 -0.0615331
0.360264 -0.145191 -0.136375
0.278751 -0.216464 -0.211433
0.194132 -0.280152 -0.255742
0.11408 -0.299701 -0.247561
0.0423924 -0.250234 -0.184821
-0.0177615 -0.126918 -0.0891376
-0.0658874 0.0469956 0.00151319
-0.103917 0.22454 0.0486155
-0.13234 0.347204 0.0286858
-0.151932 0.376975 -0.0512165
-0.160626 0.294637 -0.165643
-0.155465 0.117126 -0.277891
-0.137727 -0.0881737 -0.348835
-0.109792 -0.265673 -0.360966
-0.0787714 -0.365907 -0.319271
-0.0512222 -0.370489 -0.241123
0.432494 -0.0825942 0.024563
0.480674 -0.0745532 0.0220857
0.501521 -0.0594051 0.00281886
0.492345 -0.052192 -0.0369759
0.45463 -0.0690589 -0.0978523
0.392054 -0.114503 -0.172604
0.312358 -0.183333 -0.244278
0.222481 -0.250462 -0.286149
0.131964 -0.279572 -0.279765
0.0487774 -0.243074 -0.223702
-0.0189657 -0.132421 -0.13766
-0.0664457 0.0333561 -0.0539393
-0.0935349 0.210665 -0.00378488
-0.101923 0.341869 -0.00550689
-0.098016 0.387227 -0.0524338
-0.0864161 0.323758 -0.121829
-0.0683722 0.163552 -0.185653
-0.0484732 -0.0321289 -0.220995
-0.0298841 -0.208481 -0.218449
-0.0163194 -0.315226 -0.181111
-0.00872619 -0.331577 -0.126371
0.381643 -0.0906943 0.00905
0.43289 -0.0803159 0.000200697
0.462078 -0.0599363 -0.023669
0.465143 -0.0449182 -0.0649766
0.440815 -0.0519277 -0.122971
0.38983 -0.0863222 -0.189235
0.317213 -0.14548 -0.250515
0.229456 -0.207838 -0.285894
0.137149 -0.239444 -0.281351
0.0515235 -0.2128 -0.236069
-0.0154862 -0.117307 -0.166346
-0.0555961 0.0321617 -0.0968076
-0.0671516 0.197029 -0.049697
-0.0531822 0.323606 -0.0368989
-0.0247221 0.373331 -0.0521446
0.00699484 0.322217 -0.0770405
0.0363155 0.178913 -0.0926293
0.0561927 -0.00248888 -0.092425
0.0628627 -0.169304 -0.074513
0.0563677 -0.273677 -0.0436324
0.0411988 -0.294796 -0.0147724
0.310224 -0.0952151 -0.00615094
0.358385 -0.084238 -0.0191584
0.389741 -0.0616472 -0.0438019
0.400663 -0.0416539 -0.0811681
0.387677 -0.0398146 -0.129851
0.349501 -0.0619973 -0.181989
0.28835 -0.108019 -0.22888
0.20989 -0.160586 -0.255381
0.124277 -0.18961 -0.25214
0.0449025 -0.170094 -0.2192
-0.0144463 -0.0910165 -0.168888
-0.0434175 0.0364407 -0.117991
-0.039447 0.179705 -0.0799099
-0.00645173 0.291515 -0.0598967
0.0411285 0.337055 -0.0525336
0.0877816 0.293599 -0.0434591
0.123817 0.167692 -0.0221636
0.140706 0.00602417 0.00627298
0.136029 -0.14352 0.0356641
0.11327 -0.238041 0.0596872
0.07974 -0.258594 0.0665431
0.227832 -0.0932327 -0.0154268
0.266989 -0.0827225 -0.0288655
0.294428 -0.0607143 -0.0509208
0.307798 -0.0387466 -0.0805965
0.302999 -0.0305437 -0.116203
0.276889 -0.0417225 -0.152325
0.230013 -0.0738044 -0.183456
0.166296 -0.113911 -0.200452
0.0952021 -0.137438 -0.197978
0.0293232 -0.123102 -0.177131
-0.0174688 -0.060848 -0.146382
-0.0350755 0.0413196 -0.115605
-0.0206145 0.157367 -0.0908304
0.0214206 0.248789 -0.0718859
0.0764138 0.285667 -0.0538937
0.127157 0.248168 -0.0269666
0.163636 0.141175 0.0137856
0.17722 0.00409808 0.0572948
0.166491 -0.121526 0.0917919
0.136875 -0.200515 0.11085
0.0963467 -0.216996 0.105152
-0.129891 -0.103637 -0.245351
-0.15115 -0.153015 -0.370313
-0.163705 -0.19675 -0.48868
-0.171615 -0.224779 -0.578244
-0.1781 -0.227221 -0.619508
-0.186124 -0.197417 -0.599982
-0.197755 -0.140526 -0.52733
-0.212668 -0.0663195 -0.41331
-0.226318 0.0104024 -0.277524
-0.231011 0.0767497 -0.144868
-0.220519 0.124452 -0.031245
-0.191681 0.151764 0.0543951
-0.145177 0.162997 0.110594
-0.0856836 0.166851 0.140673
-0.0216733 0.169057 0.151697
0.0370615 0.1744 0.14959
0.0837128 0.182086 0.13878
0.113261 0.184036 0.119944
0.123606 0.17601 0.0920605
0.117656 0.153208 0.0619849
0.101597 0.119058 0.0331233
-0.145943 -0.101373 -0.27377
-0.174212 -0.153197 -0.416625
-0.194748 -0.19842 -0.554856
-0.21203 -0.225714 -0.663408
-0.229294 -0.224629 -0.720547
-0.24892 -0.188358 -0.710709
-0.272659 -0.124093 -0.641496
-0.299895 -0.0434128 -0.525086
-0.325534 0.0367342 -0.381567
-0.340504 0.101154 -0.237777
-0.337181 0.141046 -0.111561
-0.311683 0.155598 -0.0134095
-0.264391 0.151487 0.0538018
-0.199132 0.141179 0.0924262
-0.124062 0.133452 0.108996
-0.0487614 0.135618 0.109234
0.017744 0.147133 0.0980353
0.0679883 0.158929 0.0783994
0.0976237 0.163807 0.0515221
0.107251 0.15267 0.0249637
0.102404 0.126218 0.00273197
-0.135463 -0.0978711 -0.247481
-0.167748 -0.148637 -0.385395
-0.194638 -0.190482 -0.524298
-0.22075 -0.212064 -0.63982
-0.248866 -0.203325 -0.711466
-0.280746 -0.158202 -0.722089
-0.317933 -0.0862519 -0.676781
-0.359504 -0.000608039 -0.584262
-0.400443 0.0800286 -0.461858
-0.431432 0.138562 -0.333335
-0.444457 0.166071 -0.215058
-0.434778 0.162831 -0.117611
-0.401247 0.137881 -0.0455673
-0.345921 0.107283 0.00128203
-0.27342 0.0835258 0.0266987
-0.191763 0.0773199 0.033939
-0.110293 0.0892524 0.0275968
-0.0386858 0.11017 0.0136599
0.0159537 0.129428 -0.00548764
0.0506713 0.134142 -0.0221709
0.0684093 0.120855 -0.031953
-0.0930428 -0.0980805 -0.166781
-0.124727 -0.147677 -0.279159
-0.155039 -0.184691 -0.400325
-0.187688 -0.198034 -0.510476
-0.224821 -0.178628 -0.591663
-0.267624 -0.121885 -0.629914
-0.317096 -0.0403942 -0.624624
-0.372648 0.0515592 -0.578468
-0.429482 0.133781 -0.502147
-0.479552 0.187106 -0.412748
-0.515166 0.202234 -0.321289
-0.530931 0.179976 -0.236684
-0.523663 0.131136 -0.16499
-0.492332 0.07501 -0.108978
-0.436842 0.0285303 -0.0698958
-0.361665 0.00608411 -0.0487459
-0.2754 0.0109292 -0.0429065
-0.1883 0.0359356 -0.0440999
-0.109323 0.0673221 -0.050524
-0.0456225 0.0888009 -0.0553353
0.000877579 0.0926606 -0.0536121
-0.0165872 -0.106124 -0.053658
-0.0420627 -0.155446 -0.12542
-0.0716294 -0.187521 -0.213303
-0.107859 -0.191655 -0.303675
-0.151385 -0.159082 -0.387333
-0.202862 -0.088453 -0.453558
-0.262491 0.00505899 -0.496358
-0.32926 0.105787 -0.510199
-0.39948 0.192812 -0.496768
-0.467191 0.244636 -0.462836
-0.525773 0.251017 -0.410962
-0.569789 0.212294 -0.346657
-0.594325 0.139871 -0.27705
-0.595212 0.0553293 -0.208736
-0.566846 -0.0197124 -0.149532
-0.509959 -0.067077 -0.106188
-0.430406 -0.078919 -0.0797459
-0.338037 -0.0580005 -0.0627534
-0.242206 -0.0204623 -0.0537494
-0.154155 0.0159554 -0.0486706
-0.08074 0.0389607 -0.0422463
0.0829358 -0.123135 0.0615369
0.0695835 -0.173572 0.0385412
0.0463448 -0.201763 -0.00474254
0.011689 -0.197191 -0.0639559
-0.0335745 -0.151791 -0.139596
-0.0888381 -0.0668782 -0.226804
-0.153091 0.0398476 -0.315103
-0.225043 0.151813 -0.390842
-0.301863 0.248067 -0.445137
-0.379906 0.304706 -0.471468
-0.45442 0.309679 -0.462507
-0.520957 0.26137 -0.419264
-0.574152 0.169975 -0.349737
-0.607839 0.0577074 -0.265319
-0.612107 -0.0497399 -0.181229
-0.583374 -0.129874 -0.11048
-0.523938 -0.168991 -0.0589751
-0.441013 -0.163073 -0.0236568
-0.343551 -0.127654 -0.00274739
-0.244518 -0.0806449 0.00627985
-0.154441 -0.0375124 0.00832111
0.187853 -0.145002 0.142021
0.189041 -0.197124 0.160842
0.174443 -0.222393 0.160859
0.143579 -0.210789 0.137098
0.0989215 -0.154746 0.0793803
0.04309 -0.0578701 -0.0135772
-0.0208227 0.0602031 -0.131582
-0.0907136 0.183468 -0.254706
-0.164195 0.291407 -0.363244
-0.239761 0.358308 -0.438454
-0.315322 0.369675 -0.46361
-0.388937 0.320482 -0.435158
-0.456928 0.217704 -0.361704
-0.513253 0.0820645 -0.259495
-0.546152 -0.0582827 -0.150644
-0.548082 -0.176024 -0.0533678
-0.517357 -0.250979 0.0216808
-0.457388 -0.270278 0.0703972
-0.375023 -0.245729 0.0957272
-0.282695 -0.193443 0.0997521
-0.19218 -0.131191 0.0870002
0.282759 -0.167166 0.171639
0.297397 -0.220694 0.218865
0.290579 -0.244155 0.254384
0.262973 -0.228277 0.265013
0.218956 -0.166129 0.233154
0.164094 -0.0628846 0.150414
0.10444 0.0615923 0.0225504
0.0433468 0.192847 -0.126061
-0.0167069 0.31225 -0.266452
-0.0760516 0.393299 -0.370594
-0.13596 0.418852 -0.414794
-0.198501 0.37921 -0.392312
-0.263879 0.275972 -0.312765
-0.328319 0.125855 -0.196878
-0.380565 -0.0426658 -0.0718112
-0.410469 -0.198844 0.0413727
-0.411881 -0.31509 0.129317
-0.383743 -0.367534 0.181325
-0.330063 -0.362349 0.201988
-0.260369 -0.311558 0.194581
-0.185294 -0.232771 0.163318
0.358261 -0.182333 0.153102
0.382185 -0.235511 0.214649
0.379235 -0.257417 0.275252
0.351296 -0.240048 0.315915
0.305113 -0.177784 0.312772
0.249944 -0.0764075 0.250972
0.195415 0.0454423 0.130369
0.146684 0.17677 -0.0220396
0.106732 0.302739 -0.170619
0.0736747 0.397849 -0.281868
0.0424186 0.442763 -0.328963
0.00588958 0.422393 -0.304769
-0.0416107 0.331063 -0.221123
-0.100154 0.178792 -0.102596
-0.160647 -0.00838366 0.0215107
-0.21134 -0.19806 0.130624
-0.242332 -0.35625 0.212446
-0.247992 -0.446274 0.254121
-0.228724 -0.465624 0.262936
-0.190079 -0.421476 0.243664
-0.140311 -0.330303 0.199835
0.411118 -0.183398 0.0975388
0.438689 -0.232218 0.160831
0.433853 -0.251079 0.234953
0.400073 -0.23437 0.296724
0.346827 -0.178588 0.318595
0.287447 -0.0893215 0.281838
0.235502 0.0177492 0.180251
0.198237 0.137074 0.0422296
0.179365 0.259972 -0.0928134
0.175677 0.364434 -0.190173
0.178263 0.430175 -0.224543
0.174912 0.436622 -0.192269
0.153953 0.369326 -0.109416
0.11095 0.228987 -0.00363349
0.0521441 0.0361486 0.0970469
-0.0098974 -0.177653 0.176407
-0.0624005 -0.373499 0.228172
-0.0960787 -0.501042 0.244565
-0.10781 -0.547413 0.23689
-0.0994104 -0.51358 0.211317
-0.076537 -0.414548 0.169741
0.443708 -0.169813 0.0328115
0.469795 -0.210071 0.0904686
0.458484 -0.224085 0.168008
0.41477 -0.209519 0.240234
0.350893 -0.165803 0.278296
0.283809 -0.0979959 0.262356
0.230691 -0.0174213 0.182816
0.200652 0.0775288 0.0691216
0.197981 0.186578 -0.0382357
0.218161 0.293838 -0.107115
0.249014 0.379823 -0.118133
0.274136 0.41899 -0.0750227
0.276991 0.387205 -0.000148107
0.249689 0.27363 0.0765434
0.196301 0.0903346 0.131703
0.130064 -0.135063 0.15698
0.0657248 -0.360711 0.156809
0.0148673 -0.522829 0.136226
-0.0165771 -0.597614 0.111439
-0.0282059 -0.578568 0.0890192
-0.0240023 -0.477921 0.0680731
0.464014 -0.144856 -0.0184538
0.486346 -0.173245 0.0313488
0.467219 -0.180597 0.104846
0.412834 -0.168674 0.176797
0.337701 -0.14046 0.219099
0.261136 -0.100611 0.213578
0.202932 -0.05535 0.151516
0.173428 0.00512856 0.063737
0.177208 0.0907078 -0.0101883
0.208548 0.193931 -0.0433048
0.25316 0.298046 -0.0254597
0.292379 0.373615 0.0291889
0.307111 0.386686 0.0904142
0.287912 0.313326 0.126622
0.238062 0.154615 0.121794
0.171586 -0.0688078 0.0778308
0.104359 -0.314486 0.0129088
0.0487534 -0.506666 -0.0497505
0.0123096 -0.610943 -0.0886574
-0.00438875 -0.611978 -0.0982607
-0.00517667 -0.517716 -0.0834382
0.480571 -0.113922 -0.0439457
0.500673 -0.128363 -0.000959825
0.476592 -0.12771 0.0636906
0.415059 -0.117993 0.126246
0.331736 -0.106102 0.160955
0.246505 -0.0966227 0.153408
0.180336 -0.0907124 0.100011
0.143931 -0.0702201 0.0334963
0.142023 -0.0144422 -0.00868552
0.168221 0.079025 -0.00594385
0.207883 0.197793 0.0411794
0.24257 0.309993 0.106905
0.253491 0.372674 0.152851
0.231749 0.348475 0.146464
0.181009 0.226147 0.080248
0.115997 0.0170576 -0.0330863
0.0527799 -0.23805 -0.161309
0.00314363 -0.454249 -0.262201
-0.0251515 -0.587847 -0.309513
-0.0331085 -0.613698 -0.300056
-0.0257275 -0.53448 -0.243526
0.498085 -0.084283 -0.0448517
0.520626 -0.084854 -0.00703662
0.498258 -0.0750347 0.0457977
0.436936 -0.0659758 0.0923707
0.351745 -0.0683192 0.110442
0.261122 -0.0869958 0.0906245
0.185582 -0.118953 0.036981
0.135466 -0.138558 -0.0158093
0.115926 -0.114789 -0.0329203
0.121219 -0.0349206 9.36642e-05
0.138644 0.0942202 0.0726912
0.152679 0.239989 0.14871
0.147434 0.352045 0.183092
0.116051 0.380457 0.143082
0.0626394 0.301522 0.0290369
0.00166094 0.115985 -0.137055
-0.0519565 -0.13915 -0.311734
-0.0882785 -0.373202 -0.438573
-0.100737 -0.535151 -0.487487
-0.0926584 -0.590181 -0.458001
-0.0707121 -0.532297 -0.365177
0.514327 -0.0632236 -0.031813
0.544859 -0.0512402 0.00158224
0.532022 -0.0321365 0.0414413
0.479217 -0.0208294 0.0695641
0.399304 -0.0324808 0.0675336
0.307831 -0.0725467 0.0310289
0.223731 -0.135653 -0.0280797
0.156188 -0.190102 -0.0740505
0.111347 -0.196204 -0.0749409
0.0857878 -0.131518 -0.0212509
0.0709072 0.00330683 0.0688377
0.0562312 0.176441 0.152245
0.0304141 0.332347 0.180508
-0.0108855 0.410455 0.121967
-0.0640052 0.375628 -0.0168261
-0.116477 0.217916 -0.207547
-0.156754 -0.0304847 -0.400674
-0.176984 -0.2769 -0.533395
-0.172506 -0.465725 -0.575112
-0.149192 -0.550635 -0.529465
-0.114836 -0.516628 -0.415884
0.524544 -0.0540593 -0.0194737
0.567968 -0.032392 0.00842269
0.571158 -0.00365913 0.0354402
0.534341 0.0125735 0.046178
0.466322 -0.00244355 0.0259452
0.378411 -0.0551851 -0.0255147
0.286739 -0.13886 -0.0910679
0.200341 -0.219005 -0.135393
0.126925 -0.24934 -0.129391
0.0675566 -0.199271 -0.0666874
0.019633 -0.0635398 0.0304121
-0.0210508 0.128187 0.116788
-0.0611019 0.317711 0.14487
-0.103178 0.436562 0.0858325
-0.146273 0.440307 -0.0502389
-0.183452 0.310045 -0.232047
-0.206432 0.07192 -0.409813
-0.211017 -0.182792 -0.525152
-0.19534 -0.393491 -0.55224
-0.165464 -0.504385 -0.497892
-0.128968 -0.493299 -0.383447
0.520901 -0.0562989 -0.0188235
0.578682 -0.02841 0.00135213
0.600531 0.00799003 0.016244
0.583406 0.0305525 0.0129911
0.531123 0.0170681 -0.0199463
0.450548 -0.0393981 -0.0799378
0.354475 -0.132349 -0.148683
0.251775 -0.226304 -0.19335
0.153118 -0.272445 -0.187646
0.0650822 -0.23428 -0.126538
-0.00815462 -0.101756 -0.0326767
-0.0644389 0.0984594 0.0517672
-0.106345 0.308107 0.0844234
-0.136191 0.45441 0.0409399
-0.158363 0.48704 -0.0680452
-0.172192 0.379892 -0.211189
-0.174447 0.153691 -0.344584
-0.165622 -0.104139 -0.424545
-0.146991 -0.328624 -0.432821
-0.123144 -0.458633 -0.378071
-0.0976602 -0.466031 -0.281639
0.487401 -0.0664387 -0.0291243
0.555446 -0.0361764 -0.0178145
0.593326 0.0048138 -0.0134767
0.595159 0.0333221 -0.0270595
0.559661 0.0253739 -0.0665036
0.490033 -0.0267795 -0.126919
0.395347 -0.117748 -0.192465
0.284103 -0.213659 -0.235277
0.169411 -0.266425 -0.232633
0.0634285 -0.236971 -0.179811
-0.023054 -0.112089 -0.0969637
-0.0820564 0.0851142 -0.0194256
-0.113101 0.299022 0.0187073
-0.119329 0.456852 -0.00172829
-0.111634 0.506194 -0.0707911
-0.0967694 0.416872 -0.160599
-0.0776433 0.20507 -0.23784
-0.0595879 -0.0473571 -0.277113
-0.0460195 -0.274523 -0.268667
-0.038701 -0.413572 -0.219363
-0.0348201 -0.433383 -0.150262
0.42701 -0.0794808 -0.0436021
0.498041 -0.0499869 -0.0418814
0.545559 -0.00779482 -0.0458198
0.562051 0.0247055 -0.0643524
0.542793 0.0236414 -0.103424
0.486965 -0.0184066 -0.15676
0.400018 -0.0983804 -0.212998
0.289461 -0.186074 -0.250374
0.169933 -0.237057 -0.251203
0.0577814 -0.213157 -0.211027
-0.0309515 -0.0999653 -0.145803
-0.0835986 0.083213 -0.0818474
-0.0973366 0.285908 -0.043217
-0.0763304 0.439572 -0.0426531
-0.0365352 0.493437 -0.0712951
0.00697464 0.41685 -0.107252
0.0454544 0.222492 -0.128147
0.0695919 -0.0155477 -0.127019
0.0743103 -0.233015 -0.101546
0.0611274 -0.369621 -0.0604578
0.0389421 -0.394673 -0.0216574
0.345808 -0.0886517 -0.0540935
0.411712 -0.0620864 -0.0599634
0.460269 -0.0220353 -0.0691122
0.484888 0.0113829 -0.0877911
0.478361 0.0167123 -0.120383
0.437134 -0.0129722 -0.161641
0.363111 -0.0768795 -0.20491
0.262737 -0.150128 -0.23456
0.149863 -0.193644 -0.23799
0.0435146 -0.173249 -0.211652
-0.0375981 -0.0751067 -0.166757
-0.0780698 0.0851981 -0.120595
-0.0736566 0.264188 -0.0875185
-0.0290407 0.401144 -0.0734337
0.035965 0.450365 -0.0716623
0.101086 0.383335 -0.0657916
0.151983 0.210527 -0.043512
0.177113 -0.00324105 -0.0105696
0.172024 -0.199264 0.0269053
0.141456 -0.323433 0.0590305
0.0976716 -0.348345 0.0720277
0.253559 -0.0903134 -0.0535132
0.306533 -0.0674552 -0.063062
0.347646 -0.0320836 -0.0744148
0.372527 -0.00026269 -0.0903188
0.373949 0.00950093 -0.113495
0.34618 -0.00862474 -0.141528
0.289181 -0.0554036 -0.170729
0.20703 -0.111415 -0.191665
0.11243 -0.144931 -0.196037
0.0229772 -0.127284 -0.181898
-0.0424825 -0.0464754 -0.156195
-0.0690795 0.0854345 -0.128626
-0.0520009 0.233032 -0.105727
0.00360779 0.346321 -0.0878981
0.0780037 0.386381 -0.0702709
0.14924 0.328613 -0.0421362
0.202387 0.181336 0.00216643
0.225428 -0.000372235 0.0507913
0.214291 -0.1655 0.0920018
0.176135 -0.269784 0.116719
0.123976 -0.290957 0.114764
-0.0696342 -0.120412 -0.233183
-0.0889753 -0.186247 -0.357154
-0.107373 -0.248891 -0.475702
-0.127388 -0.294078 -0.56582
-0.150148 -0.30684 -0.608722
-0.175525 -0.276413 -0.591612
-0.20189 -0.207156 -0.522967
-0.226703 -0.11008 -0.414423
-0.243558 -0.00405537 -0.284615
-0.243931 0.0919535 -0.156956
-0.222185 0.164811 -0.0460149
-0.176683 0.209817 0.0405852
-0.110995 0.230816 0.101962
-0.033289 0.238228 0.140934
0.044796 0.240479 0.162987
0.111006 0.244821 0.172571
0.15778 0.251721 0.17189
0.181 0.251148 0.158786
0.179991 0.238329 0.132238
0.160238 0.207343 0.0993822
0.131286 0.161661 0.0642249
-0.0625387 -0.12675 -0.255604
-0.0883864 -0.200434 -0.396888
-0.117167 -0.270342 -0.535424
-0.151684 -0.31998 -0.645174
-0.192278 -0.332653 -0.70523
-0.237131 -0.29633 -0.699451
-0.28277 -0.217085 -0.636009
-0.325387 -0.108113 -0.526841
-0.357394 0.00835887 -0.39073
-0.368683 0.109491 -0.25271
-0.352793 0.180148 -0.129148
-0.307822 0.215735 -0.0292108
-0.23789 0.222443 0.0445642
-0.151175 0.215141 0.0935186
-0.0594807 0.20635 0.122308
0.0250233 0.206933 0.134837
0.0924266 0.21805 0.133526
0.136504 0.228372 0.118628
0.15452 0.230272 0.0919719
0.149802 0.21238 0.0618377
0.131627 0.1748 0.0329127
-0.034326 -0.130159 -0.223317
-0.0632205 -0.207253 -0.357683
-0.0994708 -0.279093 -0.496031
-0.145933 -0.327882 -0.612818
-0.202106 -0.336482 -0.688526
-0.264867 -0.292611 -0.705186
-0.329631 -0.204254 -0.667633
-0.391573 -0.0863548 -0.584128
-0.442927 0.0361228 -0.470384
-0.473402 0.136959 -0.347973
-0.476206 0.19947 -0.231825
-0.44882 0.219356 -0.131554
-0.394033 0.205204 -0.0519657
-0.318481 0.176238 0.00550916
-0.230136 0.14974 0.0423401
-0.139341 0.141118 0.0598083
-0.0561092 0.153338 0.0603587
0.0112132 0.174502 0.0482007
0.0570265 0.193642 0.0268916
0.0806614 0.19452 0.00541457
0.0883931 0.171965 -0.0108329
0.0195579 -0.134445 -0.13812
-0.00745714 -0.21265 -0.244375
-0.0465703 -0.282777 -0.36312
-0.10019 -0.32678 -0.473874
-0.167053 -0.327691 -0.559599
-0.243055 -0.273961 -0.605293
-0.323341 -0.176226 -0.609454
-0.403177 -0.0506111 -0.573684
-0.475114 0.0758975 -0.506849
-0.53017 0.174102 -0.423421
-0.561677 0.225884 -0.333153
-0.566222 0.226934 -0.244578
-0.544038 0.187711 -0.164744
-0.49804 0.131377 -0.0986009
-0.430787 0.0805366 -0.0503045
-0.348155 0.0551945 -0.0228555
-0.259358 0.0615687 -0.0150175
-0.173328 0.0893256 -0.0183347
-0.0977992 0.124243 -0.030339
-0.0385864 0.145542 -0.0419187
0.00433066 0.142853 -0.0464264
0.101223 -0.141177 -0.0245223
0.0821755 -0.218364 -0.0876815
0.0459435 -0.283528 -0.17071
-0.00898265 -0.319257 -0.259839
-0.0802663 -0.308668 -0.347276
-0.163643 -0.24311 -0.421198
-0.254358 -0.135397 -0.474087
-0.347818 -0.00285537 -0.498883
-0.43788 0.12667 -0.495049
-0.51782 0.221684 -0.4664
-0.581523 0.262738 -0.414438
-0.624748 0.244953 -0.344948
-0.644781 0.179638 -0.266807
-0.640074 0.0928414 -0.189176
-0.606377 0.0124726 -0.123274
-0.544799 -0.0373663 -0.0780438
-0.461817 -0.0454752 -0.0548563
-0.366224 -0.018288 -0.0442059
-0.266652 0.0267586 -0.0442026
-0.174452 0.0667253 -0.048284
-0.0965176 0.0859591 -0.0485428
0.204936 -0.14954 0.0871701
0.200343 -0.223568 0.0748409
0.173474 -0.281381 0.0391578
0.12368 -0.306212 -0.016095