# vtk DataFile Version 2.0
Func
ASCII
DATASET RECTILINEAR_GRID
DIMENSIONS 21 21 21
X_COORDINATES 21 double
-0.47619
-0.428571
-0.380952
-0.333333
-0.285714
-0.238095
-0.190476
-0.142857
-0.0952381
-0.047619
0
0.047619
0.0952381
0.142857
0.190476
0.238095
0.285714
0.333333
0.380952
0.428571
0.47619
Y_COORDINATES 21 double
-0.47619
-0.428571
-0.380952
-0.333333
-0.285714
-0.238095
-0.190476
-0.142857
-0.0952381
-0.047619
0
0.047619
0.0952381
0.142857
0.190476
0.238095
0.285714
0.333333
0.380952
0.428571
0.47619
Z_COORDINATES 21 double
-0.47619
-0.428571
-0.380952
-0.333333
-0.285714
-0.238095
-0.190476
-0.142857
-0.0952381
-0.047619
0
0.047619
0.0952381
0.142857
0.190476
0.238095
0.285714
0.333333
0.380952
0.428571
0.47619
POINT_DATA 9261
SCALARS data double 3
LOOKUP_TABLE default
-0.0128341 0.141567 0.0681078
-0.0241814 0.147539 0.0967863
-0.0377827 0.1352 0.12733
-0.04744 0.102436 0.144798
-0.0705573 0.0687419 0.144477
-0.0883721 0.0519993 0.154857
-0.102829 0.0447293 0.161525
-0.119115 -0.0066877 0.152696
-0.121356 -0.0360412 0.116786
-0.12722 -0.112182 0.0746116
-0.130653 -0.19975 0.020482
-0.133653 -0.220523 -0.0526313
-0.123564 -0.235009 -0.121829
-0.100648 -0.264266 -0.182788
-0.068128 -0.249249 -0.224866
-0.0334266 -0.247241 -0.265623
-0.00412079 -0.207104 -0.276366
0.0264511 -0.113035 -0.237739
0.0379013 -0.0255166 -0.207961
0.0492502 0.0681876 -0.157138
0.054873 0.130624 -0.109
0.00973878 0.148521 0.0542003
0.00437796 0.155951 0.0843945
-0.0040566 0.143165 0.121586
-0.0122513 0.107862 0.147208
-0.0328373 0.0726626 0.163514
-0.0528737 0.0583533 0.18955
-0.0718662 0.0557555 0.210605
-0.092948 0.00209455 0.205957
-0.102846 -0.0250017 0.181432
-0.114695 -0.107117 0.142916
-0.123253 -0.203983 0.0885337
-0.127546 -0.231198 0.00151553
-0.117041 -0.25151 -0.0827543
-0.0915779 -0.286974 -0.161342
-0.0554235 -0.27481 -0.208494
-0.0175369 -0.275644 -0.254998
0.0137891 -0.232531 -0.267021
0.0431625 -0.127161 -0.221447
0.0555871 -0.0289889 -0.186261
0.0641724 0.076687 -0.126871
0.0659077 0.14679 -0.0718923
0.0343946 0.146045 0.027809
0.0357746 0.155628 0.0595386
0.0337151 0.144914 0.103043
0.0279105 0.110367 0.134797
0.0102165 0.0772518 0.169568
-0.0116216 0.0691925 0.210627
-0.0350886 0.0747514 0.244956
-0.0600808 0.0213109 0.243486
-0.0771556 -0.000413911 0.231995
-0.094041 -0.0867272 0.19766
-0.106418 -0.192485 0.144899
-0.111644 -0.228935 0.0495819
-0.101759 -0.258672 -0.042263
-0.076547 -0.303039 -0.126358
-0.0398662 -0.297511 -0.17131
-0.00267124 -0.304124 -0.215846
0.0279372 -0.260175 -0.223934
0.0538637 -0.143871 -0.170722
0.0662659 -0.0372705 -0.131645
0.0715253 0.0800111 -0.0679245
0.0694708 0.158584 -0.0117438
0.0327221 0.141345 -0.00700204
0.0358841 0.151819 0.0200202
0.0364901 0.142948 0.0617204
0.032245 0.110721 0.0950038
0.0157173 0.0816053 0.136184
-0.00688733 0.0801928 0.183222
-0.0328315 0.0929652 0.222788
-0.060007 0.04185 0.224359
-0.0790641 0.0225262 0.22195
-0.0963701 -0.0667238 0.193823
-0.108219 -0.179201 0.147256
-0.112879 -0.222644 0.0589873
-0.103037 -0.259975 -0.0253939
-0.0787385 -0.311706 -0.0998252
-0.0428504 -0.312474 -0.134581
-0.00742664 -0.324135 -0.169971
0.0218748 -0.281218 -0.17133
0.0470858 -0.160444 -0.118063
0.0586578 -0.0494206 -0.0790202
0.0634245 0.0741941 -0.0198422
0.0617468 0.158316 0.0295412
0.0275308 0.110637 -0.0714727
0.0339995 0.126394 -0.0456481
0.0378445 0.125729 -0.00392836
0.0363936 0.101965 0.0300255
0.0200467 0.0821621 0.0699235
-0.00366339 0.0964191 0.120011
-0.0321408 0.127385 0.165783
-0.058826 0.0814874 0.169967
-0.0839865 0.0777748 0.172746
-0.102604 -0.0118302 0.147251
-0.11524 -0.133297 0.104006
-0.118668 -0.194638 0.0234199
-0.109452 -0.251698 -0.0474477
-0.086688 -0.321193 -0.0943557
-0.0554537 -0.339089 -0.119316
-0.0245762 -0.364478 -0.141128
0.00131509 -0.326114 -0.133224
0.0231892 -0.190899 -0.0672479
0.0319568 -0.0761855 -0.0297501
0.034532 0.0632845 0.0249754
0.0313419 0.162631 0.0669634
0.0263364 0.0846181 -0.117543
0.035305 0.103046 -0.0981942
0.0427986 0.108227 -0.0638036
0.0456451 0.0914983 -0.0336409
0.0342279 0.0796012 -0.00186399
0.0152146 0.105729 0.0456866
-0.0089888 0.149451 0.0918072
-0.0312894 0.108729 0.0992028
-0.0517482 0.114356 0.106694
-0.0655283 0.0251019 0.0862793
-0.0738839 -0.101903 0.0497495
-0.0768408 -0.175479 -0.0124992
-0.0703514 -0.246463 -0.0620556
-0.0539528 -0.328848 -0.0795407
-0.0292009 -0.359086 -0.0931306
-0.00588242 -0.394354 -0.100858
0.0136459 -0.360089 -0.0860081
0.0310675 -0.217281 -0.0221665
0.0360377 -0.099975 0.00990628
0.03645 0.0496542 0.0530869
0.0316088 0.159395 0.0829054
0.0247773 0.0606795 -0.151597
0.0351251 0.0812044 -0.140104
0.0451715 0.091277 -0.114904
0.0525 0.0801704 -0.0908062
0.0478825 0.0740324 -0.0688485
0.0363655 0.109352 -0.0240992
0.020093 0.163487 0.0223316
0.004637 0.127721 0.0325556
-0.0058792 0.141859 0.0451429
-0.0116544 0.0548785 0.0304161
-0.0134783 -0.0746905 0.000911736
-0.0165968 -0.158305 -0.042752
-0.0139527 -0.241423 -0.0713244
-0.00612683 -0.335638 -0.0617776
0.0108037 -0.376523 -0.0656636
0.0257737 -0.421083 -0.0635082
0.0387126 -0.391436 -0.0449105
0.0524199 -0.243067 0.0109981
0.0539144 -0.124314 0.0357038
0.0523677 0.033157 0.0655932
0.046167 0.151903 0.0835388
-0.00513278 0.0498052 -0.176618
0.00254004 0.0715245 -0.170074
0.0117443 0.0849232 -0.14832
0.021577 0.0782439 -0.127813
0.0212718 0.0750007 -0.102469
0.0165333 0.115145 -0.0556452
0.00813841 0.1741 -0.00652669
0.000636817 0.141442 0.00494769
0.000474802 0.160258 0.0231149
0.00300245 0.0760446 0.0137327
0.00740637 -0.0536077 -0.010173
0.00540662 -0.142661 -0.0444461
0.00591668 -0.232877 -0.0629586
0.0093942 -0.334204 -0.0398985
0.0195347 -0.383029 -0.0382967
0.028835 -0.434725 -0.0296036
0.0380185 -0.410047 -0.00868595
0.0512174 -0.262664 0.0432948
0.0513599 -0.143726 0.0626352
0.0514469 0.0169689 0.0826692
0.0470835 0.140263 0.0936146
-0.0468818 0.0359403 -0.176389
-0.0476948 0.058203 -0.175304
-0.0454416 0.0732026 -0.161251
-0.0363461 0.0667035 -0.146336
-0.0427116 0.0612144 -0.136128
-0.0469976 0.102111 -0.0935071
-0.0527265 0.164758 -0.0426049
-0.0564253 0.137189 -0.0298125
-0.0497347 0.164505 -0.00912269
-0.041659 0.0890036 -0.0160961
-0.0327509 -0.033544 -0.0387946
-0.0362681 -0.124439 -0.058211
-0.0389868 -0.218881 -0.0607429
-0.0402923 -0.327631 -0.0174886
-0.0335736 -0.379479 -0.0127275
-0.0256364 -0.437098 -0.00537728
-0.0142222 -0.41499 0.00883242
0.00993335 -0.263478 0.044302
0.013018 -0.144067 0.0573255
0.0229136 0.020044 0.064543
0.0280383 0.146156 0.0678626
-0.110907 0.0330401 -0.182199
-0.122392 0.055104 -0.17748
-0.129047 0.0698523 -0.16047
-0.122272 0.0619961 -0.146057
-0.136994 0.0516677 -0.136939
-0.142343 0.0895544 -0.0960003
-0.146541 0.151692 -0.0461376
-0.146613 0.127866 -0.0341024
-0.13547 0.160913 -0.0170782
-0.123138 0.0946959 -0.0286693
-0.110698 -0.0181514 -0.0560444
-0.113208 -0.105599 -0.0690592
-0.116292 -0.1985 -0.0636984
-0.117025 -0.308813 -0.00828406
-0.113122 -0.36061 -0.00340419
-0.10398 -0.421142 0.00435938
-0.0886334 -0.401595 0.0167817
-0.0522858 -0.251817 0.0481957
-0.045172 -0.134446 0.056598
-0.024299 0.0274756 0.0598178
-0.00802008 0.151817 0.0608197
-0.182991 0.0322247 -0.184753
-0.206565 0.0526209 -0.170418
-0.223975 0.065248 -0.144769
-0.221445 0.0537023 -0.127899
-0.247264 0.0357678 -0.118297
-0.25597 0.0678186 -0.0804271
-0.260888 0.127102 -0.0353
-0.258407 0.106722 -0.0277209
-0.245641 0.144833 -0.0222108
-0.230589 0.0895387 -0.0440382
-0.215408 -0.0104679 -0.0809941
-0.215214 -0.0903125 -0.0914509
-0.216463 -0.177256 -0.0808236
-0.213309 -0.285017 -0.0138936
-0.21151 -0.332606 -0.00952939
-0.199686 -0.393058 0.00113527
-0.179681 -0.374453 0.0146317
-0.130655 -0.227514 0.0498737
-0.119409 -0.112894 0.0555798
-0.0869496 0.0440429 0.0587731
-0.0584285 0.163394 0.0591775
-0.226983 0.0186292 -0.164173
-0.25549 0.0381347 -0.144891
-0.276732 0.0503651 -0.115072
-0.276889 0.0393712 -0.0940456
-0.302802 0.0178508 -0.0902064
-0.309957 0.0481605 -0.0609587
-0.311983 0.108141 -0.0284054
-0.305083 0.0945893 -0.0215631
-0.289847 0.143429 -0.0376496
-0.272145 0.1037 -0.0666709
-0.255138 0.0203575 -0.106546
-0.248712 -0.0532062 -0.115692
-0.245469 -0.136437 -0.104777
-0.236235 -0.24078 -0.0421144
-0.237876 -0.291375 -0.0348688
-0.226922 -0.355334 -0.0238893
-0.208205 -0.343694 -0.0109467
-0.16023 -0.20725 0.0248991
-0.148904 -0.103379 0.0251697
-0.114371 0.0430223 0.0269178
-0.0821055 0.155213 0.0252035
-0.246478 0.00720222 -0.116029
-0.275968 0.0248584 -0.090347
-0.29784 0.0353541 -0.057014
-0.299809 0.0231739 -0.0356279
-0.322027 -0.00315649 -0.0384254
-0.326418 0.0237086 -0.0201134
-0.32506 0.0824342 -0.00188003
-0.314208 0.0750511 0.00114621
-0.297325 0.133032 -0.0338813
-0.277984 0.10845 -0.0664994
-0.260288 0.0420153 -0.103981
-0.248059 -0.0242463 -0.111198
-0.240923 -0.102149 -0.0990388
-0.227191 -0.201112 -0.0428515
-0.233049 -0.25282 -0.0304135
-0.22537 -0.318598 -0.0204585
-0.211342 -0.313132 -0.0102579
-0.170524 -0.188284 0.0218204
-0.161717 -0.0958536 0.0181938
-0.129716 0.0385263 0.017249
-0.0977089 0.142493 0.0111706
-0.234418 -0.00928256 -0.0237961
-0.258863 0.00650312 0.00438558
-0.27621 0.0155558 0.0355731
-0.27876 0.00336922 0.0518339
-0.290224 -0.0262823 0.0406113
-0.289543 -0.00270351 0.0470443
-0.283932 0.0541963 0.0521169
-0.26891 0.0561275 0.0517609
-0.253693 0.123614 0.0100803
-0.235581 0.117868 -0.013955
-0.220524 0.0729035 -0.0351346
-0.20317 0.0145934 -0.0364318
-0.193303 -0.0572099 -0.0218188
-0.176863 -0.147911 0.0190618
-0.188479 -0.201953 0.0377513
-0.186928 -0.269268 0.040532
-0.181197 -0.272525 0.039859
-0.155318 -0.16647 0.0523524
-0.151024 -0.091441 0.0456974
-0.127483 0.023854 0.0366151
-0.101797 0.114613 0.0213675
-0.222801 -0.00175783 0.0243808
-0.245506 0.0113212 0.0609592
-0.261616 0.0165037 0.0966505
-0.265226 -0.000618734 0.110254
-0.27134 -0.0369754 0.0951541
-0.267078 -0.0204193 0.0951785
-0.257464 0.0312459 0.0934827
-0.239392 0.0339439 0.0859711
-0.221689 0.102938 0.040472
-0.202336 0.103804 0.016045
-0.18684 0.0680604 -0.00204296
-0.166715 0.0167473 -0.0049193
-0.155566 -0.0484864 0.00893467
-0.139048 -0.133542 0.0457612
-0.154338 -0.182594 0.0665045
-0.157656 -0.247381 0.0664383
-0.158467 -0.251865 0.0640768
-0.142727 -0.152253 0.0791791
-0.142658 -0.084171 0.0721114
-0.124579 0.0224902 0.064416
-0.101959 0.107313 0.0474216
-0.216993 -0.00359689 0.0689462
-0.237012 0.00560618 0.104166
-0.251165 0.00668204 0.137256
-0.256588 -0.0136505 0.14939
-0.257885 -0.0536671 0.129192
-0.252422 -0.0425579 0.124496
-0.241886 0.00413741 0.118589
-0.222103 0.0110874 0.108925
-0.208291 0.0810712 0.0702469
-0.191359 0.0917815 0.0553667
-0.178839 0.0694131 0.0490188
-0.15501 0.0263986 0.0469229
-0.140771 -0.0305552 0.0579062
-0.120109 -0.106404 0.0827743
-0.137182 -0.149722 0.102205
-0.142207 -0.209929 0.0946888
-0.146996 -0.21654 0.0868263
-0.140244 -0.129578 0.097733
-0.143641 -0.0726838 0.0878386
-0.131836 0.0191469 0.0800851
-0.113521 0.0924171 0.0629777
-0.196192 -0.00883993 0.0886995
-0.211006 -0.00393059 0.120316
-0.220873 -0.0066889 0.149385
-0.226954 -0.0300347 0.16045
-0.22245 -0.0714934 0.137663
-0.215985 -0.0646925 0.132224
-0.205159 -0.0225651 0.126388
-0.184981 -0.0117246 0.117256
-0.174807 0.057318 0.0907099
-0.160388 0.0758213 0.0854201
-0.150472 0.0651174 0.0876908
-0.123631 0.0303496 0.0838992
-0.106305 -0.0178234 0.089453
-0.0818497 -0.0836602 0.102573
-0.0984733 -0.119148 0.116013
-0.104221 -0.172453 0.101856
-0.11212 -0.17936 0.0889407
-0.11459 -0.103697 0.0993728
-0.12178 -0.0564938 0.0883932
-0.117774 0.0210047 0.0839618
-0.106487 0.0823735 0.0710761
-0.140834 -0.0183367 0.0775595
-0.144041 -0.0184551 0.102304
-0.143699 -0.0251656 0.125238
-0.147709 -0.0526475 0.136537
-0.1316 -0.0916797 0.117838
-0.121682 -0.0902097 0.116823
-0.109274 -0.0558083 0.116496
-0.0888162 -0.042016 0.107278
-0.0810634 0.0213946 0.100352
-0.0687317 0.0476306 0.102354
-0.0606497 0.0511836 0.107688
-0.0320325 0.02737 0.100148
-0.0129451 -0.00774779 0.0979142
0.0122103 -0.0572652 0.101085
-0.00321424 -0.0788954 0.104642
-0.011511 -0.117889 0.0875435
-0.0245696 -0.120459 0.0737705
-0.0407898 -0.0568353 0.088738
-0.0533143 -0.0194578 0.0788642
-0.0620948 0.039377 0.0812761
-0.0641215 0.0838729 0.0775134
-0.0924573 -0.0257912 0.0843757
-0.0880536 -0.0281705 0.108098
-0.0818269 -0.0354716 0.129766
-0.084566 -0.0609327 0.139
-0.0635996 -0.0969048 0.116806
-0.052895 -0.0933808 0.115226
-0.0409566 -0.0582717 0.116827
-0.0236588 -0.0426537 0.10871
-0.0171373 0.0183182 0.103272
-0.00673942 0.0441997 0.105052
0.000472666 0.0485608 0.109276
0.028407 0.0257241 0.0970816
0.0480358 -0.00764444 0.090717
0.0726419 -0.0546166 0.090445
0.0601614 -0.0728254 0.0922451
0.0522724 -0.109128 0.0716908
0.0381256 -0.112285 0.0584394
0.015382 -0.0536376 0.0784281
0.000521216 -0.0206584 0.0720226
-0.0158844 0.0326446 0.0790024
-0.0262496 0.0731015 0.0785916
-0.034794 -0.0343744 0.0792788
-0.0214683 -0.0382851 0.102428
-0.00790745 -0.0453516 0.123105
-0.00802818 -0.0683473 0.13071
0.0178128 -0.0976897 0.113807
0.0288149 -0.0932325 0.114838
0.0393959 -0.0611424 0.118605
0.0526905 -0.0452044 0.108149
0.0566574 0.0096446 0.10374
0.064182 0.0354011 0.100113
0.0696103 0.0429279 0.0972567
0.0946307 0.0230375 0.078871
0.112547 -0.00541427 0.0684253
0.133381 -0.0451789 0.0697712
0.123263 -0.0568886 0.0695702
0.114576 -0.0856241 0.0532935
0.099066 -0.0864102 0.046038
0.070504 -0.0340663 0.0720127
0.0542343 -0.00743743 0.0709849
0.0318607 0.0366177 0.0817033
0.0136094 0.0693161 0.0848432
0.0128423 -0.0411111 0.0748158
0.0310737 -0.0448419 0.0975025
0.047984 -0.049744 0.116461
0.0490122 -0.0685265 0.122159
0.0748238 -0.0905258 0.108572
0.0838246 -0.0847883 0.109529
0.0911096 -0.0559079 0.113012
0.0996448 -0.0406813 0.0996703
0.100149 0.00736453 0.0920687
0.104027 0.0312036 0.081129
0.106917 0.0399155 0.0700885
0.126827 0.0217053 0.0497742
0.141204 -0.00315429 0.0401957
0.156546 -0.0371839 0.0492726
0.14941 -0.0445048 0.0489959
0.141383 -0.0669788 0.0401767
0.127114 -0.0659619 0.0394298
0.0981435 -0.0188437 0.0672401
0.0832885 0.00199009 0.0706384
0.0595801 0.038392 0.0809901
0.038131 0.0647245 0.083996
-0.0215504 0.180258 0.0827765
-0.0349783 0.186624 0.113815
-0.0513878 0.167881 0.145316
-0.0643106 0.126262 0.161715
-0.0899876 0.0755633 0.152527
-0.109871 0.0474417 0.157921
-0.123745 0.0317786 0.159781
-0.135561 -0.0250963 0.145291
-0.135227 -0.0544062 0.101796
-0.137324 -0.129658 0.0540577
-0.138401 -0.214669 -0.0044216
-0.137501 -0.233128 -0.0804785
-0.124096 -0.24403 -0.15077
-0.0974844 -0.266796 -0.20948
-0.0638642 -0.244803 -0.25325
-0.0287194 -0.2361 -0.297218
-0.000651801 -0.189505 -0.310029
0.0281609 -0.0917504 -0.26953
0.0362886 0.00210783 -0.237822
0.0445514 0.0958425 -0.183006
0.0477527 0.154539 -0.130292
-0.0026083 0.190265 0.0725297
-0.0107821 0.198701 0.105771
-0.022947 0.179066 0.145115
-0.0349088 0.133875 0.170384
-0.059716 0.0802785 0.179237
-0.0829433 0.0541251 0.201212
-0.102196 0.0432899 0.217987
-0.118532 -0.0157166 0.206844
-0.126884 -0.0421805 0.174241
-0.1351 -0.12357 0.12915
-0.141479 -0.218442 0.0692714
-0.141284 -0.243674 -0.022242
-0.127236 -0.260667 -0.108829
-0.0976749 -0.289132 -0.18659
-0.0609867 -0.270838 -0.23526
-0.022961 -0.264935 -0.285339
0.00680401 -0.214816 -0.29929
0.0343966 -0.104668 -0.25093
0.0435333 0.00109537 -0.212701
0.049515 0.107614 -0.148064
0.0495956 0.173841 -0.08774
0.0196716 0.189196 0.0483084
0.0178837 0.200469 0.0840028
0.0116641 0.183049 0.131092
0.0018531 0.138446 0.163139
-0.0216061 0.0867563 0.192575
-0.0478575 0.0674979 0.230726
-0.0729707 0.0659542 0.261429
-0.0936286 0.00793735 0.252708
-0.110834 -0.0120457 0.232731
-0.12486 -0.0976759 0.190746
-0.135684 -0.202327 0.131331
-0.136383 -0.237923 0.0305157
-0.123373 -0.265706 -0.0639929
-0.0943117 -0.303665 -0.147266
-0.0580416 -0.293937 -0.192582
-0.0214697 -0.294756 -0.239559
0.00738476 -0.243849 -0.248236
0.0318369 -0.12189 -0.190782
0.0415603 -0.00671513 -0.147527
0.0454769 0.112308 -0.0780893
0.0431454 0.187243 -0.0170315
0.0179856 0.184107 0.0134102
0.0180329 0.196419 0.0445165
0.0146848 0.180932 0.0901325
0.00640281 0.13912 0.124238
-0.0160768 0.0922435 0.160869
-0.0435758 0.081259 0.205364
-0.0720092 0.0890716 0.24136
-0.095572 0.0351067 0.235617
-0.115595 0.0187047 0.224672
-0.13074 -0.0696403 0.18884
-0.141645 -0.181883 0.135703
-0.14243 -0.225825 0.0424373
-0.130305 -0.263013 -0.0435004
-0.102978 -0.310267 -0.115692
-0.0682944 -0.309041 -0.148874
-0.0339234 -0.316451 -0.184515
-0.0063029 -0.267177 -0.18475
0.0180776 -0.140414 -0.126708
0.0277765 -0.0201462 -0.0835541
0.0324661 0.105989 -0.0199044
0.0317633 0.186995 0.0325735
0.0128486 0.15053 -0.0534579
0.016395 0.169346 -0.0232327
0.0165427 0.163428 0.0226395
0.0114921 0.131346 0.0569091
-0.0117622 0.0955215 0.0930909
-0.0415268 0.102408 0.141053
-0.0740652 0.130782 0.183819
-0.0982242 0.0835704 0.180306
-0.127191 0.0846789 0.174335
-0.145436 -0.00380981 0.140276
-0.158675 -0.126209 0.089663
-0.159059 -0.189889 0.00530676
-0.148566 -0.249203 -0.0646975
-0.123711 -0.315313 -0.105153
-0.0945127 -0.334649 -0.126272
-0.0653236 -0.357779 -0.145547
-0.0411538 -0.314372 -0.134349
-0.0198621 -0.173221 -0.0620027
-0.0119346 -0.0496454 -0.0200687
-0.00811754 0.0926096 0.038196
-0.00899716 0.189416 0.0814453
0.014555 0.120193 -0.101561
0.0216682 0.142196 -0.0782765
0.0267617 0.14309 -0.0405154
0.0270954 0.119314 -0.0107431
0.0098251 0.0930408 0.017215
-0.0148408 0.113959 0.0628692
-0.0432581 0.157502 0.106781
-0.0637423 0.117292 0.107171
-0.0889546 0.129294 0.107348
-0.103426 0.041735 0.079147
-0.113417 -0.0868259 0.0359899
-0.114698 -0.163968 -0.0282204
-0.108381 -0.23904 -0.0746494
-0.0913381 -0.31942 -0.082556
-0.0694129 -0.35363 -0.0906407
-0.0483883 -0.38845 -0.0941229
-0.03064 -0.350322 -0.0750514
-0.0134127 -0.201804 -0.00544355
-0.0086399 -0.0758803 0.030498
-0.00627769 0.0767385 0.0754807
-0.00836636 0.18443 0.104546
0.0149964 0.0911977 -0.13794
0.0246958 0.115668 -0.123441
0.0337391 0.122294 -0.0960006
0.0400199 0.105172 -0.0729585
0.0314954 0.0861453 -0.0552215
0.0156914 0.118102 -0.011551
-0.0040974 0.174078 0.0343878
-0.0181316 0.14041 0.0391548
-0.0335843 0.162373 0.0471928
-0.0406314 0.0779587 0.026468
-0.0447308 -0.0533277 -0.00831309
-0.0474108 -0.141247 -0.0524407
-0.0462468 -0.229867 -0.0764527
-0.0391622 -0.322993 -0.0555002
-0.0260682 -0.36976 -0.0533807
-0.0138002 -0.415215 -0.0467739
-0.00248649 -0.38274 -0.0243188
0.0118904 -0.229035 0.0359136
0.0135578 -0.102125 0.0635179
0.0141687 0.0582243 0.0934049
0.0107214 0.175195 0.108962
-0.0135592 0.0748663 -0.167241
-0.00601075 0.100418 -0.158453
0.00296723 0.110716 -0.135266
0.0129091 0.0989017 -0.115935
0.0101641 0.0832901 -0.0941105
0.00255681 0.121129 -0.0470975
-0.00851789 0.183171 0.00341394
-0.0147 0.153761 0.0115042
-0.019151 0.181572 0.0275632
-0.0180206 0.101022 0.014019
-0.0160306 -0.0298083 -0.0139544
-0.0189225 -0.123466 -0.0482439
-0.021243 -0.219903 -0.0622806
-0.0201681 -0.320699 -0.0276389
-0.0145315 -0.37669 -0.0208072
-0.00816359 -0.43039 -0.00815938
-0.000103124 -0.403788 0.0158549
0.0148752 -0.251505 0.0709414
0.0156338 -0.12508 0.0920334
0.0183321 0.0384302 0.110973
0.0167915 0.160246 0.1188
-0.0587147 0.0571361 -0.169514
-0.0589777 0.0835312 -0.167618
-0.0557531 0.0959274 -0.153748
-0.0458401 0.0840452 -0.140083
-0.0518232 0.0668255 -0.134773
-0.0572937 0.10557 -0.090264
-0.0644784 0.171294 -0.0346968
-0.0671944 0.14712 -0.0226598
-0.0636333 0.18439 0.000619488
-0.0569242 0.113786 -0.0076809
-0.0504264 -0.00859464 -0.0329443
-0.0551411 -0.103069 -0.0518207
-0.0607715 -0.202838 -0.0503547
-0.0639732 -0.309724 0.00338171
-0.0613588 -0.368191 0.0111767
-0.0554008 -0.427436 0.019354
-0.0438464 -0.403359 0.0335663
-0.0160988 -0.247323 0.069134
-0.0116002 -0.120895 0.0823458
0.00162068 0.0452761 0.0874641
0.00954919 0.16913 0.087754
-0.125731 0.0508247 -0.180914
-0.13676 0.0769338 -0.175922
-0.14207 0.0890906 -0.159475
-0.13418 0.0753756 -0.145521
-0.146717 0.0532331 -0.141717
-0.151923 0.088545 -0.0976211
-0.156488 0.153296 -0.0410358
-0.155882 0.132678 -0.0275632
-0.146338 0.176377 -0.0058817
-0.135037 0.116357 -0.0175249
-0.124666 0.00529645 -0.0471028
-0.128862 -0.0843822 -0.0598595
-0.135054 -0.18125 -0.0515565
-0.137681 -0.288174 0.0131451
-0.137227 -0.345562 0.0188774
-0.129097 -0.407133 0.0252892
-0.112345 -0.385542 0.0359003
-0.0706801 -0.231813 0.0666516
-0.0611625 -0.107766 0.0740011
-0.0360235 0.055586 0.0749876
-0.0166132 0.177025 0.0733483
-0.201245 0.0473282 -0.189759
-0.22488 0.0716144 -0.175093
-0.241075 0.0815795 -0.149792
-0.237603 0.0634271 -0.132335
-0.259963 0.0333685 -0.128761
-0.267519 0.0620149 -0.0871372
-0.271878 0.123046 -0.034392
-0.268955 0.105467 -0.0240685
-0.256239 0.154748 -0.0137898
-0.241768 0.10691 -0.0354675
-0.228114 0.0105751 -0.0750155
-0.229782 -0.0697379 -0.0856474
-0.234018 -0.158758 -0.0730326
-0.232572 -0.261151 0.00250519
-0.233456 -0.312452 0.00581933
-0.22164 -0.372885 0.0136106
-0.199095 -0.351922 0.0242181
-0.143345 -0.201726 0.0593068
-0.128735 -0.0806443 0.063112
-0.0910857 0.0770087 0.0645257
-0.0589625 0.192607 0.0628653
-0.249659 0.0288038 -0.172615
-0.279224 0.0525343 -0.15271
-0.300014 0.0627026 -0.122652
-0.29927 0.0453517 -0.10022
-0.322121 0.0120024 -0.102392
-0.32788 0.038505 -0.0697071
-0.329096 0.0996933 -0.0302967
-0.321632 0.0887247 -0.0204714
-0.306355 0.148483 -0.0334572
-0.289245 0.11663 -0.0628536
-0.273604 0.0378007 -0.105763
-0.268758 -0.0347429 -0.11595
-0.268051 -0.118542 -0.104416
-0.260189 -0.215576 -0.0349883
-0.264022 -0.269452 -0.0298788
-0.252654 -0.332985 -0.0226665
-0.23102 -0.319356 -0.0130283
-0.175912 -0.1806 0.0236097
-0.160779 -0.0711183 0.0216132
-0.120522 0.0752989 0.0225159
-0.0841536 0.183303 0.0199026
-0.271351 0.0136472 -0.124077
-0.302462 0.0359314 -0.0972193
-0.324299 0.0450601 -0.0631305
-0.325228 0.0268323 -0.0401466
-0.344576 -0.0108356 -0.0494786
-0.347183 0.011849 -0.0289852
-0.344621 0.0710945 -0.00549924
-0.332875 0.0659756 -7.41097e-05
-0.315916 0.134322 -0.0339354
-0.297098 0.117767 -0.0672365
-0.280624 0.056467 -0.107394
-0.269502 -0.00735828 -0.115715
-0.264417 -0.0842952 -0.103321
-0.251869 -0.174111 -0.0416167
-0.25972 -0.228529 -0.0315413
-0.251758 -0.293402 -0.0259901
-0.23524 -0.286278 -0.0196084
-0.188082 -0.160191 0.0136485
-0.175622 -0.0631646 0.00741659
-0.138053 0.0702683 0.00606094
-0.101843 0.169482 -0.000371893
-0.255549 -0.0074017 -0.0264931
-0.281473 0.0136234 0.00272797
-0.298635 0.0224079 0.0345289
-0.299746 0.00478398 0.0520739
-0.307913 -0.0348843 0.0337733
-0.304681 -0.0154642 0.0410451
-0.297117 0.0414493 0.0496905
-0.280585 0.0454682 0.0513131
-0.265306 0.122161 0.00991579
-0.24765 0.12391 -0.0138657
-0.233803 0.0838771 -0.0357473
-0.217126 0.0294469 -0.0373505
-0.209129 -0.0398276 -0.0224349
-0.194506 -0.119581 0.0215608
-0.208462 -0.176294 0.0382473
-0.20786 -0.242501 0.0353745
-0.201382 -0.244619 0.0295175
-0.172244 -0.1384 0.0418848
-0.164893 -0.0602025 0.031979
-0.136941 0.0531623 0.0222413
-0.107653 0.138715 0.00675061
-0.244967 0.00170516 0.0258203
-0.269244 0.020138 0.0642459
-0.285235 0.0253156 0.10042
-0.287392 0.00258033 0.114186
-0.28982 -0.0438168 0.0901401
-0.282277 -0.0321089 0.0889393
-0.269696 0.0185031 0.0889088
-0.249125 0.0225476 0.0823827
-0.230405 0.10013 0.0362749
-0.210754 0.10868 0.0125995
-0.195745 0.0786166 -0.00478979
-0.175494 0.031939 -0.00626112
-0.165677 -0.0297602 0.00956714
-0.150799 -0.102894 0.0507753
-0.168667 -0.153278 0.0700288
-0.173546 -0.216302 0.0642413
-0.174558 -0.219707 0.0563488
-0.156931 -0.121044 0.0710337
-0.154652 -0.0508699 0.0603015
-0.132905 0.0524668 0.0512905
-0.10707 0.131271 0.0331779
-0.239968 -0.000794808 0.0743155
-0.26178 0.0136395 0.11084
-0.276096 0.0149759 0.143493
-0.280223 -0.0110533 0.154827
-0.27783 -0.0604603 0.123984
-0.268677 -0.0545283 0.116323
-0.254584 -0.00959266 0.110469
-0.231341 -0.00168447 0.10144
-0.216043 0.0759971 0.0622803
-0.198148 0.0941746 0.0494578
-0.185475 0.0777729 0.0457121
-0.16034 0.0403343 0.0466983
-0.146463 -0.0118736 0.0607227
-0.126856 -0.0747815 0.0895449
-0.146773 -0.118318 0.107747
-0.15391 -0.175988 0.0942315
-0.160008 -0.181276 0.0804552
-0.153462 -0.0956774 0.0904927
-0.155493 -0.0378521 0.0766755
-0.141173 0.0494376 0.0673479
-0.120215 0.116015 0.0488687
-0.220501 -0.00694322 0.0971721
-0.237225 0.00273175 0.129475
-0.247465 0.000171125 0.157161
-0.252301 -0.0290697 0.166219
-0.244136 -0.0790917 0.131879
-0.233722 -0.0775731 0.122152
-0.218895 -0.0375832 0.115315
-0.194437 -0.0259972 0.106527
-0.182352 0.0501775 0.0800086
-0.166232 0.0759551 0.0777487
-0.155483 0.0715383 0.0837992
-0.125988 0.0430863 0.0841209
-0.107856 0.000608715 0.0932813
-0.0833971 -0.0517174 0.109835
-0.102962 -0.086109 0.122056
-0.111115 -0.136003 0.101813
-0.121133 -0.141122 0.0831445
-0.125567 -0.0667995 0.092652
-0.132242 -0.0195094 0.0781102
-0.126917 0.0525353 0.07247
-0.113833 0.106687 0.0585126
-0.168017 -0.0184768 0.0888887
-0.172927 -0.0146236 0.113868
-0.172864 -0.0211586 0.134964
-0.175394 -0.0546273 0.143194
-0.155432 -0.0999778 0.1145
-0.141214 -0.103049 0.109091
-0.124349 -0.0703611 0.107544
-0.0989245 -0.0558533 0.0979986
-0.0887735 0.0141559 0.0924489
-0.0739528 0.0471269 0.0976755
-0.0642168 0.0568476 0.106679
-0.0313164 0.0394685 0.102935
-0.00984597 0.010324 0.103759
0.0173164 -0.0267588 0.109145
-0.0010513 -0.0457497 0.111472
-0.0117012 -0.0805641 0.0890548
-0.0273834 -0.0805567 0.070487
-0.0468953 -0.0172775 0.0849638
-0.0600529 0.0200075 0.0730654
-0.0689692 0.0734393 0.0752281
-0.0704272 0.110869 0.0711925
-0.116142 -0.025056 0.0972918
-0.112633 -0.0239069 0.121426
-0.10624 -0.0312186 0.141212
-0.107313 -0.0625877 0.146538
-0.0827263 -0.104474 0.114036
-0.0680779 -0.105453 0.107666
-0.0521693 -0.0722072 0.107726
-0.0299734 -0.0559644 0.0987423
-0.0216479 0.0113285 0.0945188
-0.00872608 0.0437615 0.0990067
0.000365205 0.0544484 0.106255
0.0333392 0.0381155 0.0974853
0.0561122 0.010986 0.0940186
0.083253 -0.0232214 0.0959347
0.0679462 -0.0379176 0.0966133
0.0575102 -0.069328 0.0709198
0.0403011 -0.0695888 0.0535376
0.0131594 -0.0114686 0.0739549
-0.00315054 0.020794 0.0669528
-0.0209775 0.0676949 0.0747446
-0.0320231 0.100358 0.0746249
-0.0547859 -0.0335007 0.0939043
-0.0412451 -0.0343557 0.118196
-0.0267295 -0.0413174 0.137768
-0.0250606 -0.0696849 0.141162
0.00437711 -0.103043 0.116316
0.0188125 -0.102134 0.113343
0.0327321 -0.0714444 0.116051
0.0504091 -0.0550189 0.103936
0.055459 0.00552018 0.101008
0.0651989 0.0369986 0.0989477
0.0723837 0.0502065 0.0976223
0.102811 0.0360804 0.0811529
0.124376 0.0133556 0.0724992
0.14854 -0.0149607 0.075395
0.13583 -0.0225583 0.0742127
0.124727 -0.046128 0.0537043
0.10611 -0.0436105 0.0436354
0.072618 0.00873712 0.0709436
0.0543961 0.0345731 0.0709492
0.029681 0.072309 0.0833797
0.00971481 0.0973665 0.0872908
-0.00155619 -0.0393684 0.0894904
0.0180235 -0.0402516 0.113971
0.0367176 -0.0446718 0.132688
0.0395994 -0.0680678 0.134569
0.0691207 -0.0922012 0.115518
0.0810183 -0.0890266 0.113726
0.0909105 -0.0612346 0.116959
0.102986 -0.0457714 0.101573
0.103678 0.00711929 0.0954925
0.109063 0.0356197 0.0848859
0.113156 0.0491004 0.073872
0.138113 0.0357278 0.054389
0.156074 0.0157878 0.045937
0.175013 -0.008485 0.0566515
0.165643 -0.0116344 0.0555644
0.155571 -0.0291736 0.0435115
0.138491 -0.0248711 0.040964
0.104595 0.0225358 0.0704766
0.0876979 0.0425895 0.0756193
0.0610712 0.0731097 0.0878047
0.0371277 0.0923108 0.0915729
-0.0337577 0.22641 0.0964105
-0.0487815 0.232136 0.129211
-0.0671969 0.206894 0.160381
-0.0827016 0.155523 0.174538
-0.106727 0.0926241 0.153444
-0.125055 0.0560483 0.151127
-0.134452 0.0350458 0.145356
-0.137369 -0.0268895 0.123571
-0.131537 -0.0530038 0.0716292
-0.127603 -0.123177 0.0193116
-0.125563 -0.200848 -0.0410857
-0.119698 -0.213309 -0.115608
-0.104049 -0.216626 -0.182282
-0.0759277 -0.229436 -0.234518
-0.0460595 -0.199893 -0.27671
-0.016221 -0.187807 -0.32249
0.00532619 -0.141197 -0.337796
0.0264867 -0.0520878 -0.297647
0.0286781 0.0427336 -0.266439
0.0319179 0.129397 -0.209662
0.0319639 0.179921 -0.154012
-0.0206177 0.24105 0.0916493
-0.0319005 0.249208 0.127657
-0.0476589 0.222484 0.167752
-0.063049 0.166496 0.190815
-0.0876986 0.0993318 0.187974
-0.109869 0.0644551 0.201838
-0.124237 0.0486335 0.210064
-0.130013 -0.0150003 0.189742
-0.132114 -0.0373343 0.147201
-0.132997 -0.112994 0.0960639
-0.135431 -0.20006 0.0332142
-0.129205 -0.218756 -0.0572958
-0.112836 -0.227614 -0.140153
-0.0821401 -0.244822 -0.211189
-0.0509903 -0.21972 -0.257179
-0.0200285 -0.210946 -0.30874
0.00176124 -0.161553 -0.324777
0.020909 -0.0610914 -0.276132
0.0236799 0.0455856 -0.237614
0.0251941 0.144371 -0.170249
0.0232758 0.20143 -0.106629
-0.00227747 0.243802 0.0720291
-0.0082689 0.255111 0.111977
-0.0192658 0.230254 0.161308
-0.0332921 0.174419 0.191171
-0.0582216 0.108491 0.210027
-0.0843605 0.0809469 0.24009
-0.105177 0.0754859 0.261682
-0.114796 0.013891 0.242115
-0.1261 -0.000721411 0.210712
-0.132533 -0.0799955 0.160887
-0.139365 -0.176755 0.0970244
-0.133794 -0.20592 -0.00344435
-0.119051 -0.225907 -0.0938274
-0.0897362 -0.252316 -0.169263
-0.0607171 -0.237481 -0.21032
-0.0327632 -0.23678 -0.257206
-0.0125649 -0.1878 -0.266306
0.00359923 -0.0767174 -0.207045
0.00763619 0.0393701 -0.162308
0.0086713 0.150214 -0.0898676
0.00617512 0.215359 -0.0261701
-0.00381168 0.239678 0.0394586
-0.00814502 0.251976 0.0754686
-0.0165274 0.22875 0.123889
-0.0296013 0.175876 0.156154
-0.0543119 0.114838 0.182758
-0.0825614 0.0967427 0.219181
-0.107534 0.102578 0.245727
-0.120851 0.0469717 0.228695
-0.135972 0.0375693 0.205841
-0.144259 -0.0437129 0.161682
-0.15192 -0.148079 0.103848
-0.147342 -0.185932 0.0111084
-0.134575 -0.216157 -0.0697249
-0.108048 -0.252955 -0.132631
-0.0814361 -0.248466 -0.159745
-0.0559101 -0.255813 -0.193214
-0.0364099 -0.209586 -0.192077
-0.0190424 -0.094238 -0.131515
-0.0135271 0.0268337 -0.0868175
-0.009856 0.144634 -0.0214002
-0.00910131 0.215634 0.0319503
-0.00883572 0.208495 -0.0276285
-0.0100395 0.227438 0.00842378
-0.0153885 0.213659 0.0577541