# vtk DataFile Version 2.0
Func
ASCII
DATASET RECTILINEAR_GRID
DIMENSIONS 21 21 21
X_COORDINATES 21 double
-4.7619
-4.28571
-3.80952
-3.33333
-2.85714
-2.38095
-1.90476
-1.42857
-0.952381
-0.47619
0
0.47619
0.952381
1.42857
1.90476
2.38095
2.85714
3.33333
3.80952
4.28571
4.7619
Y_COORDINATES 21 double
-4.7619
-4.28571
-3.80952
-3.33333
-2.85714
-2.38095
-1.90476
-1.42857
-0.952381
-0.47619
0
0.47619
0.952381
1.42857
1.90476
2.38095
2.85714
3.33333
3.80952
4.28571
4.7619
Z_COORDINATES 21 double
-4.7619
-4.28571
-3.80952
-3.33333
-2.85714
-2.38095
-1.90476
-1.42857
-0.952381
-0.47619
0
0.47619
0.952381
1.42857
1.90476
2.38095
2.85714
3.33333
3.80952
4.28571
4.7619
POINT_DATA 9261
SCALARS data double 3
LOOKUP_TABLE default
-0.0461918 0.033987 -0.104188
-0.049145 0.0349416 -0.117819
-0.0504514 0.0194323 -0.115649
-0.0514932 -0.0181545 -0.0976298
-0.0525384 -0.0759018 -0.0708491
-0.0523109 -0.147708 -0.0417869
-0.0487444 -0.221447 -0.0235341
-0.0396984 -0.285776 -0.0226704
-0.0236128 -0.329538 -0.0395315
0.00153853 -0.344863 -0.0691373
0.0352738 -0.330415 -0.10068
0.0753223 -0.289522 -0.121178
0.117433 -0.229039 -0.118733
0.155903 -0.157748 -0.085661
0.183872 -0.0854732 -0.0255404
0.195394 -0.0199314 0.0524905
0.189595 0.0329137 0.133482
0.168498 0.066919 0.195011
0.136015 0.0798634 0.224514
0.0987414 0.0758427 0.217561
0.0647571 0.0593382 0.179001
-0.0553454 0.0657143 -0.13479
-0.0550877 0.0725025 -0.153618
-0.0514866 0.0555226 -0.151814
-0.0471335 0.00796941 -0.12917
-0.0434104 -0.0676253 -0.0935568
-0.039457 -0.1613 -0.0514768
-0.033978 -0.255596 -0.0208667
-0.0245697 -0.335326 -0.0113246
-0.0096267 -0.386618 -0.0252469
0.0140879 -0.40025 -0.0575563
0.047177 -0.376251 -0.0956152
0.0881422 -0.320673 -0.122964
0.132924 -0.243912 -0.123846
0.175532 -0.158163 -0.087955
0.207767 -0.0756257 -0.0185853
0.222733 -0.00476847 0.0738472
0.218385 0.0487506 0.170898
0.196494 0.080091 0.243891
0.160508 0.0898884 0.278904
0.117951 0.0828458 0.270263
0.0783146 0.0644528 0.222915
-0.0628721 0.107664 -0.149844
-0.0599809 0.122445 -0.172965
-0.0521415 0.105176 -0.173051
-0.0425589 0.0476365 -0.148963
-0.0335822 -0.0464826 -0.107907
-0.0252221 -0.162574 -0.0562964
-0.0172561 -0.277278 -0.0147086
-0.00790465 -0.371657 0.00431331
0.00442688 -0.429513 -0.00347231
0.0235725 -0.440774 -0.034053
0.051019 -0.407283 -0.0743356
0.0864846 -0.338165 -0.105881
0.127004 -0.247492 -0.110391
0.167149 -0.15081 -0.0757952
0.198888 -0.0623309 -0.00473049
0.214903 0.00927296 0.0918949
0.212614 0.0592699 0.193903
0.193168 0.0847889 0.269529
0.159008 0.090289 0.304972
0.117632 0.0811195 0.294342
0.0790718 0.0630019 0.242752
-0.0689446 0.160695 -0.146115
-0.0647106 0.185761 -0.171036
-0.0550128 0.16993 -0.173458
-0.0424271 0.104222 -0.150483
-0.0302198 -0.00678065 -0.10777
-0.0191864 -0.144134 -0.0519749
-0.0103733 -0.278349 -0.00376489
-0.00258515 -0.386801 0.0224689
0.00569357 -0.4514 0.0211867
0.0179846 -0.461508 -0.00536936
0.0365158 -0.420929 -0.0446359
0.0622119 -0.341709 -0.0777866
0.0936144 -0.241289 -0.0856841
0.126603 -0.138204 -0.0555998
0.154218 -0.0481034 0.0100366
0.169713 0.02033 0.100649
0.170017 0.0636358 0.195966
0.155695 0.0813646 0.265597
0.128367 0.0821892 0.295971
0.0945882 0.0714429 0.282975
0.0636143 0.055105 0.231944
-0.0759384 0.221266 -0.121062
-0.0735163 0.258468 -0.144105
-0.066349 0.246369 -0.147816
-0.0554629 0.175469 -0.12749
-0.0438591 0.0515201 -0.0880918
-0.0333707 -0.103393 -0.0354279
-0.025793 -0.254307 0.0121503
-0.0204039 -0.375422 0.040276
-0.0164484 -0.447351 0.0423152
-0.0114345 -0.459186 0.0191806
-0.00295198 -0.416444 -0.0176918
0.0107679 -0.333368 -0.0504711
0.0299295 -0.229777 -0.0609722
0.0522962 -0.126233 -0.0373445
0.0730702 -0.0389358 0.017847
0.0869634 0.0235308 0.0938494
0.0909408 0.0590183 0.172257
0.0848148 0.0694043 0.227632
0.0693417 0.0663878 0.249587
0.049111 0.0553914 0.234529
0.0318959 0.0419707 0.189083
-0.0828748 0.282786 -0.0835106
-0.0846518 0.333487 -0.10057
-0.0834812 0.327653 -0.10326
-0.0787242 0.25535 -0.0862575
-0.0728717 0.123698 -0.0535127
-0.0678195 -0.0432558 -0.00939092
-0.065622 -0.206299 0.0316269
-0.0656519 -0.337445 0.0559638
-0.0675484 -0.416745 0.0565904
-0.0700053 -0.433275 0.0342396
-0.0708369 -0.393894 -0.000887224
-0.0679595 -0.314055 -0.0326955
-0.0599517 -0.214619 -0.0452253
-0.0473998 -0.116905 -0.0289909
-0.0328285 -0.0366853 0.0131637
-0.0196051 0.0179247 0.0696444
-0.0105753 0.0457957 0.124291
-0.00647447 0.0502679 0.159799
-0.00736165 0.045259 0.170331
-0.0107501 0.0358317 0.154737
-0.0108026 0.0266951 0.120256
-0.085211 0.338792 -0.0444806
-0.0908605 0.403181 -0.0531703
-0.0958846 0.405667 -0.051822
-0.0985346 0.336191 -0.0352985
-0.100624 0.203032 -0.00737605
-0.103826 0.031162 0.0281191
-0.109922 -0.137545 0.05983
-0.11772 -0.274396 0.0751398
-0.126805 -0.359953 0.067466
-0.136611 -0.383533 0.03879
-0.145258 -0.352913 -0.000601199
-0.150734 -0.283627 -0.035397
-0.151004 -0.195997 -0.0514955
-0.145609 -0.110511 -0.0420115
-0.135375 -0.0414539 -0.0108168
-0.121715 0.00415232 0.0288019
-0.107466 0.0257306 0.0621608
-0.0937471 0.0269249 0.0796246
-0.0810918 0.0223838 0.0801457
-0.0688091 0.0162676 0.0651951
-0.0528808 0.0121204 0.0431199
-0.0774927 0.381975 -0.0123479
-0.0836001 0.458861 -0.0126348
-0.0911115 0.470753 -0.00535565
-0.0983077 0.407852 0.0138043
-0.106747 0.279907 0.0404478
-0.117816 0.11134 0.0698042
-0.132615 -0.0550644 0.0919637
-0.149109 -0.191718 0.0950423
-0.166188 -0.28072 0.073502
-0.183269 -0.312127 0.0317509
-0.198617 -0.294297 -0.018256
-0.210453 -0.241774 -0.0604446
-0.2167 -0.172738 -0.0814832
-0.216534 -0.10513 -0.076679
-0.209835 -0.0505752 -0.0516888
-0.196658 -0.0146401 -0.0223791
-0.179569 0.00251976 -0.00315503
-0.159901 0.0037469 0.00220528
-0.138253 0.00192401 -0.00404448
-0.115081 0.000418088 -0.0175117
-0.0876071 0.00132844 -0.0285057
-0.0583151 0.408223 0.00480986
-0.0589287 0.494545 0.0103827
-0.0617554 0.515398 0.0234909
-0.0665411 0.461455 0.0475423
-0.0754681 0.343682 0.0770381
-0.0900668 0.185528 0.104889
-0.110989 0.0291053 0.120645
-0.135399 -0.100547 0.112347
-0.161024 -0.188305 0.0755658
-0.186348 -0.225692 0.0175221
-0.209299 -0.221692 -0.0470041
-0.228019 -0.189227 -0.0996738
-0.240531 -0.143113 -0.126491
-0.246074 -0.0973216 -0.123984
-0.244222 -0.059807 -0.0998597
-0.234269 -0.0340791 -0.0731619
-0.218609 -0.0200837 -0.0592692
-0.198417 -0.0165119 -0.0585405
-0.173913 -0.0136971 -0.0671922
-0.145916 -0.00976385 -0.0788066
-0.11254 -0.00460588 -0.0820177
-0.0338708 0.416483 -0.000489395
-0.0231301 0.508194 0.00521918
-0.0132107 0.535902 0.0211317
-0.006855 0.490887 0.0500816
-0.0080003 0.385216 0.0858796
-0.0191109 0.241913 0.118414
-0.0410924 0.101562 0.134208
-0.070852 -0.0143303 0.11992
-0.104754 -0.0945535 0.0716082
-0.139498 -0.133072 -0.00129556
-0.172019 -0.140028 -0.0806955
-0.19975 -0.1268 -0.144778
-0.220504 -0.104395 -0.177245
-0.233623 -0.0820084 -0.174279
-0.238862 -0.0632568 -0.145377
-0.235382 -0.0489617 -0.112644
-0.225448 -0.0385464 -0.0936647
-0.209909 -0.0323488 -0.0891929
-0.188419 -0.0246783 -0.0956306
-0.161483 -0.0153404 -0.105353
-0.12771 -0.0067416 -0.105703
-0.0162083 0.407506 -0.029655
0.00885114 0.49979 -0.0314675
0.0367504 0.530826 -0.0184527
0.0610595 0.492684 0.0124496
0.0751797 0.398416 0.0554487
0.0748226 0.271696 0.0975734
0.057844 0.151263 0.120687
0.0267457 0.0546764 0.108813
-0.0136975 -0.0115858 0.0572881
-0.0579065 -0.0449309 -0.0237319
-0.101293 -0.0573949 -0.113465
-0.13994 -0.0593793 -0.186374
-0.170884 -0.0582891 -0.222767
-0.193323 -0.0583764 -0.216877
-0.207414 -0.0586672 -0.17913
-0.212695 -0.056869 -0.133767
-0.21135 -0.0513353 -0.101127
-0.203853 -0.0436396 -0.0857278
-0.189275 -0.0321839 -0.085974
-0.167367 -0.018419 -0.0942258
-0.136875 -0.00716753 -0.097028
-0.019453 0.384215 -0.0780943
0.0176012 0.472038 -0.0951063
0.0629961 0.502014 -0.0923192
0.106872 0.467313 -0.0655373
0.139647 0.381842 -0.0184564
0.154619 0.271147 0.03457
0.147484 0.172125 0.0705678
0.11928 0.0984718 0.0702236
0.0753702 0.0515889 0.0266516
0.0235804 0.0298208 -0.0514082
-0.0297772 0.0185446 -0.142333
-0.079049 0.00748853 -0.217825
-0.119934 -0.00788439 -0.254609
-0.151137 -0.0273178 -0.243754
-0.173244 -0.0454733 -0.195303
-0.186581 -0.0567567 -0.133988
-0.193347 -0.0578692 -0.0825766
-0.193766 -0.0509054 -0.0516584
-0.186517 -0.0378049 -0.0429656
-0.170459 -0.0213847 -0.0501035
-0.144206 -0.00843867 -0.0595576
-0.051876 0.351119 -0.134185
-0.0103938 0.430006 -0.171934
0.0456659 0.454526 -0.186702
0.104253 0.419483 -0.172254
0.153307 0.339527 -0.128245
0.183652 0.242883 -0.0678852
0.188347 0.164752 -0.0173071
0.166334 0.115354 0.0010031
0.122872 0.0912267 -0.0234429
0.0674257 0.0860459 -0.0856568
0.0078201 0.0822107 -0.165957
-0.0485941 0.0687464 -0.2354
-0.0958681 0.042966 -0.267941
-0.131945 0.00871398 -0.250883
-0.157802 -0.0249629 -0.192421
-0.174849 -0.0492879 -0.115727
-0.185481 -0.0588801 -0.044799
-0.189978 -0.0554879 0.00289396
-0.186991 -0.0435229 0.0216493
-0.174654 -0.0266869 0.015532
-0.151265 -0.0129463 -0.00276386
-0.109493 0.313541 -0.181241
-0.0737743 0.380216 -0.24172
-0.0185876 0.395787 -0.279781
0.0442599 0.357282 -0.286053
0.101624 0.280021 -0.25468
0.142418 0.194964 -0.195299
0.157283 0.13558 -0.133574
0.142947 0.10924 -0.0939628
0.103866 0.108321 -0.0913907
0.0500495 0.122002 -0.126501
-0.00974483 0.129839 -0.184526
-0.0669443 0.11965 -0.238763
-0.114075 0.0895435 -0.262158
-0.148278 0.0457401 -0.238462
-0.170869 -4.1037e-05 -0.172803
-0.184504 -0.0363551 -0.0848185
-0.192029 -0.0556267 0.00202729
-0.194234 -0.0584471 0.0642145
-0.19023 -0.050401 0.0922503
-0.177839 -0.0354258 0.0872439
-0.155085 -0.0216796 0.060242
-0.178128 0.274662 -0.202493
-0.158066 0.326727 -0.281655
-0.115931 0.331611 -0.344284
-0.0611168 0.288623 -0.377466
-0.00612088 0.213462 -0.368341
0.0372044 0.138506 -0.320555
0.0579493 0.0950282 -0.25548
0.051012 0.0881348 -0.197473
0.0195623 0.107234 -0.165592
-0.027143 0.13797 -0.167201
-0.0802364 0.158073 -0.194782
-0.130703 0.154318 -0.226778
-0.170139 0.124859 -0.237506
-0.195123 0.0769937 -0.208204
-0.207256 0.0237296 -0.140213
-0.210416 -0.0218139 -0.0481214
-0.208086 -0.0501087 0.0471494
-0.201962 -0.0602907 0.118343
-0.192007 -0.0579333 0.152916
-0.176169 -0.0465283 0.148876
-0.151984 -0.0332623 0.115237
-0.236481 0.235675 -0.183972
-0.238577 0.273181 -0.273457
-0.219116 0.267062 -0.357382
-0.183572 0.220818 -0.419871
-0.141692 0.149522 -0.441331
-0.104765 0.0848189 -0.416965
-0.0838066 0.0545539 -0.35921
-0.0850308 0.062107 -0.290045
-0.106805 0.0953925 -0.23184
-0.141957 0.138015 -0.198894
-0.182373 0.167526 -0.192429
-0.219437 0.170385 -0.19843
-0.244674 0.144511 -0.195012
-0.254494 0.097214 -0.162431
-0.250746 0.0413656 -0.0980799
-0.238309 -0.00913107 -0.0105164
-0.221407 -0.0440903 0.0836463
-0.202928 -0.0610046 0.156311
-0.183946 -0.064399 0.193102
-0.162949 -0.0571348 0.189512
-0.136806 -0.0447589 0.152169
-0.266527 0.197954 -0.12591
-0.291505 0.221644 -0.215383
-0.298498 0.206802 -0.314182
-0.288305 0.159475 -0.403557
-0.266748 0.0949482 -0.458607
-0.242945 0.0409342 -0.46616
-0.226845 0.0214514 -0.425944
-0.224638 0.0381194 -0.355213
-0.236319 0.0788062 -0.278363
-0.257671 0.1267 -0.215774
-0.28206 0.160904 -0.17748
-0.301944 0.168591 -0.158231
-0.30962 0.147495 -0.141734
-0.301767 0.10421 -0.108938
-0.28042 0.0504896 -0.0537633
-0.25109 -0.000507289 0.0213914
-0.218753 -0.0389172 0.105332
-0.187484 -0.060665 0.171986
-0.159454 -0.0685985 0.20668
-0.133966 -0.0649219 0.203112
-0.10729 -0.053661 0.16567
-0.257252 0.161367 -0.048333
-0.299366 0.173383 -0.129417
-0.329432 0.153337 -0.233247
-0.343618 0.108398 -0.338117
-0.342877 0.0530344 -0.417882
-0.334555 0.0103262 -0.454943
-0.326032 -0.000956969 -0.436962
-0.32265 0.0198838 -0.374439
-0.325642 0.0614156 -0.291101
-0.333986 0.107979 -0.211288
-0.342875 0.141681 -0.151146
-0.346289 0.151376 -0.113131
-0.337956 0.134885 -0.0870798
-0.315204 0.0977212 -0.0564411
-0.280144 0.0497278 -0.0131375
-0.238229 0.00239121 0.0450847
-0.194855 -0.035557 0.112225
-0.1549 -0.0588837 0.166769
-0.121436 -0.0690904 0.195032
-0.0944264 -0.067604 0.190623
-0.0698175 -0.0573738 0.15618
-0.215751 0.125725 0.0267367
-0.264769 0.128482 -0.037659
-0.30837 0.106843 -0.134552
-0.339381 0.0679628 -0.242724
-0.355973 0.0248728 -0.335027
-0.361876 -0.00618127 -0.393046
-0.361949 -0.0112312 -0.395803
-0.360088 0.00947402 -0.348227
-0.357572 0.0461889 -0.269889
-0.356051 0.0855959 -0.186161
-0.35256 0.113994 -0.116321
-0.342851 0.122744 -0.0684131
-0.322577 0.110081 -0.0379397
-0.290025 0.0802585 -0.0118591
-0.247171 0.0405768 0.0183966
-0.199262 0.000275423 0.0580781
-0.15157 -0.0335595 0.105651
-0.109171 -0.0554842 0.145161
-0.075368 -0.0656208 0.165367
-0.0506392 -0.0648409 0.159879
-0.0309331 -0.0552896 0.130386
-0.156761 0.0911904 0.082798
-0.203396 0.08723 0.0389825
-0.249683 0.066883 -0.0410623
-0.288422 0.0367502 -0.140163
-0.315235 0.00668279 -0.233076
-0.330791 -0.0132264 -0.3004
-0.337237 -0.0138572 -0.318043
-0.337402 0.00422294 -0.286745
-0.332211 0.0331367 -0.22143
-0.324703 0.0624402 -0.144883
-0.313588 0.0829403 -0.076773
-0.296273 0.0888267 -0.028059
-0.270297 0.079003 0.00149321
-0.234647 0.0565799 0.0212432
-0.191442 0.0263668 0.0390391
-0.145249 -0.00496869 0.0615842
-0.100571 -0.0320764 0.0903092
-0.062021 -0.0499158 0.114922
-0.0324967 -0.0579299 0.126667
-0.0127252 -0.0567054 0.120337
0.00083027 -0.0478158 0.0966991
-0.0965129 0.0570849 0.106772
-0.132988 0.0492279 0.0826218
-0.172339 0.0325116 0.0253414
-0.208866 0.0109383 -0.0536919
-0.237845 -0.00826677 -0.134269
-0.25711 -0.019717 -0.197325
-0.267296 -0.0182954 -0.221367
-0.269101 -0.00461384 -0.204105
-0.263966 0.0157132 -0.156407
-0.254656 0.0352761 -0.0955923
-0.241062 0.0485714 -0.03885
-0.22202 0.0521522 0.00282477
-0.196497 0.0453794 0.0272271
-0.164479 0.0301929 0.0402798
-0.127771 0.00946908 0.0483383
-0.090045 -0.0124859 0.0575406
-0.0546444 -0.0322027 0.070831
-0.0249798 -0.045209 0.0828191
-0.00303619 -0.0502823 0.0874014
0.0106024 -0.0480362 0.0807705
0.0187983 -0.0396499 0.0635176
-0.0694804 0.0657603 -0.135257
-0.0813326 0.0714158 -0.152289
-0.0914289 0.0522792 -0.146164
-0.100225 0.00108158 -0.116656
-0.106508 -0.0797304 -0.0723334
-0.108754 -0.180593 -0.0232573
-0.104637 -0.282688 0.0123107
-0.0923679 -0.368994 0.0236159
-0.0715244 -0.424172 0.0078169
-0.0417172 -0.437705 -0.0305484
-0.0043542 -0.409368 -0.0779146
0.0378651 -0.346246 -0.116928
0.0808719 -0.260404 -0.130696
0.119802 -0.165877 -0.107003
0.148684 -0.0761765 -0.0480737
0.162601 -0.000715581 0.036536
0.160865 0.0548554 0.129505
0.145467 0.0860248 0.203884
0.119536 0.0938134 0.243681
0.0886031 0.0843506 0.241529
0.060251 0.0639591 0.201471
-0.0780744 0.106775 -0.176612
-0.0861345 0.119193 -0.201859
-0.0905203 0.0974197 -0.197242
-0.0927266 0.0328054 -0.162296
-0.0927981 -0.0711058 -0.106267
-0.0902216 -0.200224 -0.0399195
-0.0838239 -0.328479 0.0122941
-0.0718397 -0.433692 0.0355394
-0.0538149 -0.49698 0.0240873
-0.0282158 -0.506056 -0.0176038
0.00507635 -0.462587 -0.0737648
0.0446043 -0.377546 -0.122594
0.0870389 -0.268003 -0.142149
0.127854 -0.152845 -0.116708
0.160177 -0.0487931 -0.0476802
0.178219 0.0335255 0.054044
0.179855 0.0889686 0.166964
0.166431 0.114934 0.256538
0.140231 0.116181 0.304665
0.10687 0.100177 0.301997
0.0748107 0.0745471 0.252214
-0.080619 0.15908 -0.198608
-0.0839091 0.180527 -0.231481
-0.0816384 0.15746 -0.231329
-0.0759672 0.0796853 -0.196362
-0.0683642 -0.0475838 -0.134655
-0.0597707 -0.204871 -0.0570845
-0.0505876 -0.358102 0.00852425
-0.0398919 -0.480208 0.0437652
-0.0270903 -0.549278 0.040531
-0.00986911 -0.552003 0.00185003
0.0132509 -0.492537 -0.0561182
0.0426742 -0.386193 -0.109253
0.0768138 -0.255252 -0.132562
0.112194 -0.123338 -0.108265
0.142517 -0.0100699 -0.0367459
0.161621 0.0734026 0.0705515
0.166445 0.123178 0.190162
0.157331 0.139456 0.283827
0.13517 0.131824 0.33325
0.10508 0.10928 0.328757
0.0756173 0.079828 0.274103
-0.0788193 0.22358 -0.196338
-0.0779692 0.256472 -0.234013
-0.0708022 0.234066 -0.239689
-0.059112 0.145526 -0.209128
-0.0457725 -0.002407 -0.147925
-0.0331014 -0.185341 -0.0673528
-0.0231541 -0.361078 0.00484573
-0.0157172 -0.497864 0.0483084
-0.00997303 -0.571518 0.0536101
-0.00376602 -0.568323 0.0214395
0.00571713 -0.495188 -0.0328678
0.0206916 -0.371611 -0.0850567
0.0416898 -0.224634 -0.109522
0.0669435 -0.0820527 -0.0880518
0.0914709 0.0344484 -0.0211254
0.109643 0.113447 0.080252
0.117648 0.152888 0.192576
0.114873 0.156333 0.279326
0.101107 0.138609 0.322459
0.0801714 0.109609 0.314683
0.0595841 0.0776889 0.260254
-0.078455 0.296738 -0.166316
-0.0770556 0.343376 -0.20397
-0.0699091 0.324381 -0.214408
-0.0575781 0.22892 -0.190742
-0.0431484 0.0655337 -0.136997
-0.0303255 -0.13772 -0.0634495
-0.0221442 -0.331464 0.00538763
-0.0188712 -0.480072 0.0498711
-0.0201852 -0.557895 0.0596142
-0.0247148 -0.551495 0.0336481
-0.0289755 -0.470379 -0.0142221
-0.0294978 -0.337414 -0.0614625
-0.0236319 -0.183154 -0.0843227
-0.0110722 -0.038273 -0.0663217
0.00546913 0.0747019 -0.00875926
0.0216843 0.144416 0.076831
0.0336611 0.170886 0.169363
0.039784 0.161022 0.238352
0.0387615 0.133719 0.269867
0.032389 0.099797 0.258007
0.0265295 0.0672754 0.20916
-0.080674 0.371265 -0.11984
-0.0817956 0.433453 -0.151808
-0.0789422 0.421176 -0.163738
-0.0713668 0.32363 -0.147573
-0.0621085 0.151496 -0.105649
-0.0551244 -0.0649878 -0.0462457
-0.0537897 -0.270767 0.0114704
-0.0583427 -0.427656 0.0495461
-0.0684096 -0.509534 0.0576357
-0.0834186 -0.503705 0.0348218
-0.0996629 -0.421854 -0.00673883
-0.113098 -0.288987 -0.0472199
-0.119587 -0.137468 -0.0664713
-0.117255 0.000826524 -0.051854
-0.106642 0.103873 -0.00576122
-0.0904672 0.160899 0.0586448
-0.0725952 0.173806 0.122887
-0.0554301 0.151971 0.166497
-0.0411623 0.11741 0.181557
-0.0299643 0.0812618 0.166107
-0.0179739 0.050755 0.128295
-0.0829792 0.440307 -0.0714593
-0.087154 0.518767 -0.0939087
-0.0897038 0.516127 -0.102529
-0.089156 0.421866 -0.0893723
-0.0882871 0.248446 -0.0562944
-0.0908718 0.0271683 -0.0104086
-0.0999947 -0.183161 0.0333887
-0.115049 -0.343602 0.0589145
-0.135077 -0.429014 0.0570181
-0.159711 -0.4277 0.0286143
-0.185152 -0.352955 -0.0141286
-0.207253 -0.230464 -0.0528894
-0.221165 -0.0923611 -0.0706406
-0.224291 0.0303055 -0.0588732
-0.215846 0.117394 -0.0220711
-0.197033 0.159629 0.0241237
-0.172056 0.160216 0.0627355
-0.143922 0.129744 0.0825347
-0.115399 0.0916666 0.0820957
-0.0881117 0.0565777 0.0638334
-0.0600277 0.0305773 0.0382587
-0.0781616 0.495581 -0.0324507
-0.0822144 0.589603 -0.0443476
-0.08667 0.598561 -0.046017
-0.0905331 0.512506 -0.030558
-0.0967474 0.34574 -0.000538679
-0.108708 0.129079 0.0362918
-0.128756 -0.0770357 0.0670605
-0.155038 -0.235212 0.0770077
-0.185401 -0.322498 0.0587189
-0.218791 -0.328632 0.0163748
-0.251228 -0.267956 -0.0358827
-0.278654 -0.165334 -0.0792512
-0.29622 -0.050543 -0.098361
-0.301439 0.0484055 -0.0881879
-0.293107 0.114755 -0.0560515
-0.271641 0.14123 -0.0211567
-0.241347 0.132155 -0.000190729
-0.205781 0.0979603 0.00254435
-0.167805 0.0606323 -0.00984413
-0.129877 0.0299116 -0.0301667
-0.0910287 0.0105059 -0.0452338
-0.0627247 0.532267 -0.012884
-0.0602667 0.639002 -0.0165448
-0.0588852 0.659679 -0.0101344
-0.0595897 0.585018 0.0119557
-0.0663721 0.430797 0.0453688
-0.0826522 0.226782 0.0801657
-0.110299 0.0329787 0.103021
-0.146249 -0.116472 0.099351
-0.186794 -0.202309 0.0633487
-0.229208 -0.216313 0.00287354
-0.268899 -0.173675 -0.0645661
-0.301558 -0.0973496 -0.117735
-0.322535 -0.0129974 -0.140968
-0.329919 0.0563123 -0.131327
-0.322771 0.0984955 -0.0990233
-0.301338 0.109035 -0.0673556
-0.270185 0.0928943 -0.0542465
-0.232997 0.059391 -0.05975
-0.192317 0.0271414 -0.0785618
-0.150624 0.00387606 -0.100168
-0.107696 -0.00772927 -0.108293
-0.0415622 0.548472 -0.0210678
-0.0259821 0.663666 -0.022756
-0.00969633 0.694073 -0.010906
0.00265619 0.631162 0.0189902
0.00485193 0.491873 0.0610683
-0.00742814 0.305455 0.102476
-0.0364216 0.130211 0.126221
-0.0785221 -0.004199 0.116093
-0.128407 -0.0835654 0.0669468
-0.180809 -0.102539 -0.0105169
-0.229894 -0.0774498 -0.0948638
-0.270372 -0.0289897 -0.160835
-0.2974 0.0222214 -0.190232
-0.309582 0.0592588 -0.180007
-0.306594 0.075546 -0.142606
-0.28907 0.0700238 -0.105025
-0.261851 0.0483122 -0.0877938
-0.228585 0.0181748 -0.0912633
-0.191339 -0.00636426 -0.11013
-0.152095 -0.0201303 -0.131799
-0.111027 -0.0232034 -0.137811
-0.0262975 0.543936 -0.0567405
0.00589605 0.662025 -0.0653007
0.0430284 0.698246 -0.0544093
0.0762089 0.645011 -0.0196562
0.0960665 0.520133 0.0328181
0.0963411 0.353434 0.087346
0.0732891 0.200777 0.12122
0.0300315 0.0867532 0.114963
-0.0268732 0.019531 0.0624537
-0.0891889 0.000656401 -0.0246984
-0.149315 0.0121326 -0.121936
-0.200291 0.0353181 -0.199566
-0.236419 0.0548134 -0.235302
-0.256397 0.0603106 -0.223739
-0.260561 0.0510594 -0.178163
-0.250283 0.0298946 -0.127885
-0.23062 0.00335122 -0.0965784
-0.20511 -0.0222963 -0.0888177
-0.175316 -0.038162 -0.101747
-0.142474 -0.0418581 -0.122521
-0.106894 -0.0362768 -0.131483
-0.0318552 0.520476 -0.111964
0.0142917 0.635063 -0.136336
0.0714979 0.671742 -0.135175
0.127089 0.624287 -0.102898
0.168314 0.511141 -0.0437685
0.186243 0.363905 0.0252814
0.174623 0.235591 0.0756914
0.135031 0.145682 0.0838275
0.0746231 0.0958994 0.0407133
0.00442328 0.0831739 -0.043845
-0.066007 0.0872991 -0.144459
-0.127722 0.0910912 -0.228077
-0.173546 0.083883 -0.267912
-0.201803 0.0617317 -0.254469
-0.213321 0.0294575 -0.200004
-0.210442 -0.00607339 -0.133914
-0.198392 -0.0371223 -0.0824998
-0.180649 -0.0585539 -0.057221
-0.158432 -0.0664402 -0.0594868
-0.132273 -0.0610255 -0.0781298
-0.10245 -0.0477138 -0.0936213
-0.0671167 0.481957 -0.170979
-0.015785 0.586801 -0.217464
0.0532862 0.618236 -0.235021
0.125188 0.572121 -0.215567
0.184491 0.46738 -0.158898
0.219498 0.338092 -0.0804612
0.221007 0.234156 -0.0124558
0.188313 0.170219 0.0175857
0.128469 0.141811 -0.00379451
0.0545018 0.140753 -0.0714757
-0.0223155 0.144349 -0.162657
-0.0912726 0.13617 -0.243423
-0.143455 0.109372 -0.283325
-0.176478 0.0655093 -0.267859
-0.191517 0.0142168 -0.206301
-0.192026 -0.03383 -0.125481
-0.183424 -0.0694894 -0.0528269
-0.169338 -0.0882336 -0.00759124
-0.150974 -0.0903091 0.00363441
-0.128444 -0.078063 -0.0113497
-0.101877 -0.0587007 -0.0346288
-0.127175 0.433799 -0.213469
-0.0823243 0.523568 -0.284132
-0.0149441 0.544799 -0.327579
0.06068 0.496069 -0.331531
0.128119 0.396808 -0.289402
0.173603 0.283502 -0.212703
0.185412 0.202533 -0.132572
0.160451 0.164257 -0.0788694
0.105021 0.158805 -0.0704155
0.0328311 0.17297 -0.108979
-0.0437892 0.181744 -0.177903
-0.113105 0.168957 -0.245846
-0.164746 0.130476 -0.280757
-0.195592 0.072063 -0.263269
-0.20709 0.00696748 -0.19818
-0.203824 -0.0509902 -0.107326
-0.191532 -0.0912961 -0.0171432
-0.174329 -0.109483 0.0462526
-0.153871 -0.10877 0.0713141
-0.130289 -0.092794 0.061442
-0.103559 -0.0696279 0.0315599
-0.196695 0.379516 -0.22146
-0.169726 0.449854 -0.311114
-0.118142 0.45769 -0.382188
-0.0534004 0.404648 -0.417841
0.00905862 0.310376 -0.402695
0.05491 0.21214 -0.341416
0.0711201 0.151998 -0.259606
0.052702 0.136641 -0.18676
0.00478257 0.152146 -0.146596
-0.0597501 0.181177 -0.149033
-0.128478 0.197478 -0.186321
-0.18968 0.185236 -0.233199
-0.232385 0.142141 -0.258861
-0.253049 0.0766781 -0.240283
-0.253399 0.00414709 -0.176948
-0.239039 -0.0596498 -0.0839049
-0.21611 -0.103065 0.0156913
-0.189513 -0.121701 0.0915505
-0.161725 -0.120635 0.128108
-0.133251 -0.103838 0.123911
-0.103607 -0.0789876 0.0902254
-0.2515 0.320672 -0.181784
-0.249559 0.370214 -0.280387
-0.224597 0.363381 -0.375404
-0.183761 0.306856 -0.446161
-0.13904 0.219343 -0.46889
-0.103673 0.136793 -0.437965
-0.0901986 0.0954777 -0.367729
-0.104485 0.0987651 -0.284767
-0.142901 0.130552 -0.216631
-0.19492 0.170839 -0.181574
-0.249099 0.193791 -0.182513
-0.294736 0.18452 -0.203173
-0.321363 0.14199 -0.216955
-0.32545 0.0760692 -0.199023
-0.309044 0.00246527 -0.143445
-0.278482 -0.0619704 -0.057424
-0.240401 -0.106062 0.041227
-0.200659 -0.125139 0.121246
-0.162798 -0.124801 0.164564
-0.12796 -0.109179 0.16552
-0.0949466 -0.0846842 0.131261
-0.272022 0.260707 -0.0984634
-0.295273 0.289669 -0.194096
-0.300655 0.270282 -0.305609
-0.290235 0.212215 -0.408847
-0.271333 0.134313 -0.473278
-0.254075 0.0677345 -0.483118
-0.249188 0.0427736 -0.436657
-0.262018 0.0595749 -0.354644
-0.290511 0.101432 -0.267238
-0.32753 0.147472 -0.199814
-0.363519 0.174017 -0.165982
-0.389488 0.167928 -0.159955
-0.396494 0.129156 -0.161562
-0.381477 0.0678562 -0.146252
-0.346803 -0.00093931 -0.103433
-0.299193 -0.0613284 -0.0324433
-0.245807 -0.103293 0.0553944
-0.193367 -0.121889 0.130967
-0.14642 -0.122317 0.175706
-0.106843 -0.108458 0.180715
-0.0727237 -0.0857189 0.149259
-0.249687 0.201744 0.00156169
-0.291143 0.212871 -0.0822558
-0.322431 0.185006 -0.199206
-0.3406 0.12901 -0.321557
-0.347303 0.0628177 -0.417037
-0.349868 0.0121947 -0.464197
-0.355518 0.000146782 -0.446527
-0.36829 0.0249834 -0.376229
-0.387482 0.0702942 -0.282742
-0.409761 0.11613 -0.196303
-0.427975 0.142382 -0.137783
-0.435236 0.138355 -0.110643
-0.424806 0.104854 -0.101917
-0.39441 0.0515288 -0.0897137
-0.34658 -0.00829925 -0.0608028
-0.287563 -0.0607075 -0.00877327
-0.224765 -0.0974672 0.0610478
-0.165272 -0.113601 0.124528
-0.114388 -0.113724 0.164458
-0.0743812 -0.101277 0.170969
-0.0428476 -0.0808701 0.144357
-0.195634 0.145699 0.0912015
-0.243837 0.14298 0.0275056
-0.290132 0.111351 -0.0814574
-0.327786 0.06154 -0.208759
-0.355105 0.00991392 -0.320683
-0.374735 -0.0253668 -0.394364
-0.390694 -0.0277518 -0.402664
-0.405024 -0.000502975 -0.351014
-0.417178 0.0418809 -0.26359
-0.427225 0.0816733 -0.171984
-0.430582 0.103487 -0.100811
-0.422647 0.0996372 -0.0603555
-0.399322 0.0717148 -0.0445466
-0.359385 0.0282846 -0.0357121
-0.305192 -0.019997 -0.0201594
-0.24262 -0.061599 0.0118535
-0.17849 -0.090555 0.0601466
-0.119561 -0.102451 0.106938
-0.0711111 -0.100952 0.138256
-0.035536 -0.0890762 0.14391
-0.0102037 -0.0706283 0.122683
-0.127746 0.0945204 0.151273
-0.172868 0.0824365 0.110761
-0.222179 0.0513466 0.0209537
-0.268589 0.0112266 -0.0963763
-0.307392 -0.0252737 -0.210007
-0.337373 -0.046751 -0.295119
-0.359452 -0.0428577 -0.321349
-0.374421 -0.0172307 -0.288802
-0.381611 0.01814 -0.21604
-0.382924 0.0485006 -0.131209
-0.376295 0.0634589 -0.0594614
-0.359169 0.0584244 -0.0146941
-0.32985 0.0356654 0.00381538
-0.287747 0.00240477 0.00905295
-0.235519 -0.0334732 0.013328
-0.177996 -0.0633523 0.0275872
-0.120761 -0.0831414 0.0551114
-0.0695307 -0.089438 0.0846072
-0.0288194 -0.0852098 0.105327
-0.000818118 -0.0731442 0.108618
0.0168323 -0.0564443 0.0924193
-0.0652034 0.0493775 0.167365
-0.0999752 0.0325157 0.147697
-0.142182 0.00548081 0.083525
-0.18583 -0.0247654 -0.0103798
-0.225569 -0.0487353 -0.109083
-0.257297 -0.0601074 -0.188275
-0.280494 -0.0534432 -0.220977
-0.294013 -0.0322843 -0.203916
-0.29815 -0.00558939 -0.150555
-0.294973 0.0153905 -0.0821247
-0.284027 0.0242433 -0.0207117
-0.264431 0.0187691 0.0197571
-0.235979 0.00141977 0.0368492
-0.199172 -0.0221847 0.0389967
-0.156306 -0.0463732 0.035884
-0.111085 -0.0652979 0.0372989
-0.0674236 -0.0767778 0.047984
-0.0293454 -0.0781376 0.0622782
5.72335e-05 -0.0712778 0.0727405
0.0192621 -0.0589163 0.0729551
0.0302423 -0.043697 0.061281
-0.0991823 0.101472 -0.164375
-0.123471 0.113066 -0.184591
-0.146304 0.0924143 -0.173601
-0.166487 0.0306362 -0.130684
-0.181073 -0.0693696 -0.0655884
-0.187682 -0.194971 0.00747886
-0.184017 -0.320483 0.0645562
-0.16923 -0.423475 0.0895882
-0.144775 -0.484265 0.0761195
-0.112516 -0.490588 0.0276597
-0.0753368 -0.443946 -0.0398247
-0.0361944 -0.356068 -0.104264
0.00186085 -0.245093 -0.142869
0.0356258 -0.130792 -0.137928
0.0615996 -0.0302116 -0.088418
0.0769981 0.0459634 -0.0031357
0.0819304 0.09374 0.0989832
0.0780963 0.112604 0.186422
0.0669635 0.108305 0.23903
0.0515984 0.0894987 0.246028
0.0374895 0.0641707 0.209915
-0.1065 0.150438 -0.215741
-0.126492 0.169496 -0.247317
-0.143083 0.145355 -0.239255
-0.155802 0.0676714 -0.190253
-0.163199 -0.0591595 -0.110631
-0.164291 -0.217442 -0.0160288
-0.158163 -0.372752 0.062173
-0.144426 -0.49627 0.102581
-0.12474 -0.56403 0.0948834
-0.0998892 -0.561793 0.0421751
-0.0710026 -0.493508 -0.037056
-0.0392471 -0.376034 -0.115357
-0.00617535 -0.234072 -0.163637
0.0260034 -0.0936772 -0.159541
0.0536318 0.0239608 -0.100578
0.0734745 0.106718 0.00338921
0.0839168 0.151408 0.128692
0.0854688 0.160481 0.235005
0.0781828 0.144359 0.299255
0.064515 0.114015 0.308003
0.0499416 0.0792475 0.262828
-0.100531 0.209575 -0.244805
-0.112577 0.237934 -0.287714
-0.119341 0.211417 -0.287297
-0.121014 0.118365 -0.240281
-0.118056 -0.0348552 -0.155402
-0.111451 -0.224656 -0.0484689
-0.102223 -0.40708 0.0451428
-0.091105 -0.547437 0.0998166
-0.0796345 -0.618205 0.102299
-0.067492 -0.604065 0.0538425
-0.0540928 -0.51213 -0.026762
-0.0379872 -0.364895 -0.109496
-0.0182445 -0.193839 -0.161793
0.0045725 -0.0311274 -0.158842
0.027891 0.0981524 -0.0968387
0.0481729 0.181159 0.0138013
0.062811 0.216403 0.147421
0.0705598 0.210243 0.25941
0.069689 0.178824 0.326244
0.061683 0.135558 0.334033
0.051268 0.0914521 0.284329
-0.0852918 0.279478 -0.245112
-0.0885365 0.319175 -0.296464
-0.0856638 0.292121 -0.306166
-0.0770454 0.186421 -0.267741
-0.0650389 0.010563 -0.1865
-0.0525458 -0.206688 -0.0785957
-0.0425568 -0.411889 0.0209898
-0.0365573 -0.564822 0.0846292
-0.0355968 -0.635612 0.0977377
-0.0390978 -0.608769 0.0587729
-0.0445994 -0.494976 -0.0146606
-0.0480858 -0.322209 -0.0928422
-0.0459171 -0.128127 -0.143032
-0.0365164 0.0497753 -0.140388
-0.0210353 0.183499 -0.0814624
-0.00255843 0.259955 0.0236445
0.0152755 0.279982 0.1494
0.0299028 0.25453 0.253542
0.0380667 0.205634 0.312879
0.0396157 0.148868 0.316559
0.0380728 0.0962796 0.266989
-0.0709138 0.356785 -0.2122
-0.0689351 0.410048 -0.266231
-0.0612744 0.385277 -0.285101
-0.0478141 0.271299 -0.258764
-0.0317702 0.0790166 -0.190102
-0.0178047 -0.158896 -0.0940022
-0.0100271 -0.380686 -0.00112872
-0.0102439 -0.541708 0.0623996