# vtk DataFile Version 2.0
Func
ASCII
DATASET RECTILINEAR_GRID
DIMENSIONS 21 21 21
X_COORDINATES 21 double
-0.47619
-0.428571
-0.380952
-0.333333
-0.285714
-0.238095
-0.190476
-0.142857
-0.0952381
-0.047619
0
0.047619
0.0952381
0.142857
0.190476
0.238095
0.285714
0.333333
0.380952
0.428571
0.47619
Y_COORDINATES 21 double
-0.47619
-0.428571
-0.380952
-0.333333
-0.285714
-0.238095
-0.190476
-0.142857
-0.0952381
-0.047619
0
0.047619
0.0952381
0.142857
0.190476
0.238095
0.285714
0.333333
0.380952
0.428571
0.47619
Z_COORDINATES 21 double
-0.47619
-0.428571
-0.380952
-0.333333
-0.285714
-0.238095
-0.190476
-0.142857
-0.0952381
-0.047619
0
0.047619
0.0952381
0.142857
0.190476
0.238095
0.285714
0.333333
0.380952
0.428571
0.47619
POINT_DATA 9261
SCALARS data double 3
LOOKUP_TABLE default
-0.0949672 -0.138333 -0.0296005
-0.0921895 -0.158921 -0.00487362
-0.0873644 -0.17266 0.0223664
-0.0872028 -0.135285 0.0515298
-0.0772756 -0.103238 0.0609812
-0.0731023 -0.0190641 0.0645265
-0.0661105 0.0746151 0.0585949
-0.0629173 0.121252 0.0481203
-0.0359898 0.162093 0.0282949
-0.0120715 0.173267 -0.00988513
0.0179849 0.161698 -0.0557242
0.0498296 0.108973 -0.0783682
0.0865651 0.0563523 -0.0804271
0.131701 0.0193625 -0.0513091
0.160814 -0.00703589 -0.0225299
0.187054 -0.011816 0.0173341
0.202882 0.00638154 0.0530143
0.213101 0.053339 0.0928849
0.203277 0.0526622 0.0974227
0.189039 0.0228905 0.112017
0.168133 -0.0113958 0.109494
-0.0744399 -0.136639 0.00810883
-0.0680998 -0.165603 0.0422235
-0.0602866 -0.187949 0.0773429
-0.058903 -0.153687 0.110601
-0.0445293 -0.123052 0.119464
-0.037834 -0.0340251 0.118956
-0.0279812 0.0665901 0.106595
-0.0201131 0.115674 0.0919686
0.00616601 0.158004 0.0637465
0.0303808 0.16896 0.0211948
0.0585278 0.156477 -0.0272574
0.0906355 0.104507 -0.051546
0.125741 0.0529042 -0.0529259
0.167736 0.017136 -0.0204496
0.193283 -0.00652496 0.0127871
0.214861 -0.00752239 0.0564099
0.224866 0.0166486 0.0949177
0.222792 0.0689521 0.130373
0.209862 0.0724129 0.136823
0.187793 0.0392429 0.146235
0.160189 -5.18809e-05 0.136024
-0.0480479 -0.121202 0.0346771
-0.0388608 -0.159345 0.0774873
-0.0291827 -0.193239 0.121341
-0.0265672 -0.166722 0.159055
-0.0103896 -0.142232 0.170875
-0.00231873 -0.0535809 0.170112
0.00890398 0.0497466 0.156036
0.0209635 0.0987469 0.141109
0.0403874 0.140989 0.109073
0.0595245 0.151848 0.0648644
0.0789735 0.140108 0.0147482
0.10571 0.0936114 -0.0131543
0.132393 0.0477507 -0.0184267
0.163941 0.016593 0.00957922
0.179573 -0.00199256 0.0416264
0.191289 0.000917896 0.0833103
0.192194 0.0304097 0.120907
0.176545 0.0847524 0.152412
0.162255 0.0927366 0.161776
0.136503 0.0559639 0.170843
0.108636 0.0113246 0.158709
-0.0519804 -0.113659 0.041687
-0.0436209 -0.155566 0.0899251
-0.0346939 -0.196094 0.139411
-0.0317529 -0.175663 0.182267
-0.0159041 -0.157326 0.200786
-0.00725158 -0.0716044 0.2052
0.00420521 0.0309792 0.194929
0.0193441 0.0802481 0.184542
0.0293278 0.123556 0.152431
0.0403149 0.136457 0.10901
0.0473519 0.127901 0.0590984
0.0672407 0.0860584 0.0298411
0.0845702 0.0450334 0.0196173
0.107885 0.0179064 0.0388207
0.111943 0.00325803 0.0623818
0.115476 0.00863702 0.0996043
0.10998 0.040226 0.134795
0.0874913 0.0954585 0.16388
0.0743936 0.104749 0.175925
0.0521799 0.0668972 0.186492
0.0313922 0.0197561 0.174867
-0.0534485 -0.0529015 0.0392914
-0.0491425 -0.110505 0.0943553
-0.0440314 -0.174795 0.155126
-0.0400065 -0.176276 0.202829
-0.0319144 -0.178463 0.239419
-0.0270195 -0.105379 0.255128
-0.0201073 -0.0094583 0.256445
-0.00277931 0.0336199 0.255147
-0.0112891 0.0745156 0.237855
-0.013641 0.0885361 0.200066
-0.0245198 0.0851279 0.150085
-0.014226 0.0634923 0.108131
-0.00990072 0.0431035 0.0827043
-0.00102804 0.0324182 0.0799169
-0.011657 0.0302155 0.0918999
-0.0203743 0.041631 0.116307
-0.0356764 0.0747629 0.143911
-0.0673128 0.11909 0.168818
-0.0777018 0.131214 0.18634
-0.0939766 0.0803008 0.210688
-0.103291 0.0216304 0.211411
-0.0654115 -0.00902265 0.0105761
-0.0654066 -0.076583 0.0666909
-0.0634525 -0.158189 0.133374
-0.0595693 -0.176966 0.18487
-0.0544387 -0.197606 0.234081
-0.0501494 -0.136261 0.261263
-0.044138 -0.046319 0.276616
-0.0243403 -0.00656323 0.286197
-0.0428508 0.0349608 0.284221
-0.053132 0.0526981 0.254636
-0.0757408 0.056477 0.208042
-0.0717871 0.0518328 0.161179
-0.0761219 0.048016 0.126121
-0.0758252 0.0506702 0.107552
-0.0979351 0.0570476 0.108113
-0.115427 0.0708624 0.11884
-0.137402 0.10137 0.137602
-0.173883 0.134883 0.161103
-0.182803 0.144245 0.181002
-0.193492 0.0823939 0.215433
-0.192995 0.0154504 0.226556
-0.0735228 0.0360849 -0.0334502
-0.0771184 -0.041404 0.020289
-0.0772207 -0.140403 0.0890499
-0.0738464 -0.177004 0.142209
-0.0692644 -0.216865 0.200644
-0.0644794 -0.167695 0.237398
-0.0579433 -0.0836175 0.265558
-0.0362378 -0.0458941 0.287243
-0.0596408 -0.00277951 0.301634
-0.0740863 0.0198502 0.282486
-0.103532 0.0319354 0.242158
-0.103497 0.0456408 0.195201
-0.113427 0.0594342 0.155079
-0.118629 0.0760891 0.126563
-0.147586 0.089894 0.117291
-0.170837 0.10401 0.115819
-0.197507 0.128604 0.124294
-0.237249 0.147013 0.144997
-0.246312 0.149561 0.165317
-0.253413 0.0741269 0.207068
-0.246337 -0.0013641 0.227153
-0.0687763 0.0649005 -0.0786345
-0.0756342 -0.0186713 -0.0326219
-0.0780768 -0.130358 0.0312119
-0.076227 -0.182293 0.0838092
-0.0733163 -0.237314 0.144393
-0.0701804 -0.198993 0.186183
-0.0659632 -0.119759 0.221111
-0.0453129 -0.0822668 0.251964
-0.0753675 -0.0348087 0.273424
-0.0946435 -0.00519729 0.263126
-0.129416 0.017316 0.230262
-0.132463 0.0474538 0.192161
-0.145935 0.0764641 0.155606
-0.155656 0.104761 0.124203
-0.186504 0.125034 0.110149
-0.212542 0.137872 0.102228
-0.241646 0.155389 0.104683
-0.282472 0.160645 0.120473
-0.291338 0.153548 0.135793
-0.295748 0.0670548 0.176708
-0.284278 -0.014755 0.199004
-0.0583329 0.122434 -0.124216
-0.0663791 0.0272411 -0.0860852
-0.0697439 -0.10373 -0.0274709
-0.0695117 -0.172259 0.020892
-0.0666572 -0.247328 0.0797541
-0.064044 -0.219994 0.1225
-0.0610135 -0.146198 0.162587
-0.0438017 -0.112191 0.201217
-0.0713821 -0.0678013 0.23802
-0.0893972 -0.0389484 0.240024
-0.121907 -0.014991 0.217619
-0.126451 0.0307832 0.187807
-0.140242 0.0749158 0.157017
-0.150242 0.11616 0.128981
-0.178486 0.139358 0.11274
-0.202315 0.148768 0.0990215
-0.228818 0.156912 0.093398
-0.265122 0.142048 0.100711
-0.27486 0.128564 0.110728
-0.277669 0.0282903 0.15207
-0.265027 -0.0600239 0.178007
-0.034803 0.161587 -0.161233
-0.0426466 0.0602455 -0.13436
-0.0464615 -0.0825512 -0.0870385
-0.047722 -0.162911 -0.0461903
-0.04743 -0.25097 0.00200133
-0.0484469 -0.232191 0.0412243
-0.0507267 -0.163648 0.0826755
-0.0412363 -0.13281 0.128362
-0.0716114 -0.0909119 0.170309
-0.0925217 -0.0633223 0.179633
-0.125416 -0.0393237 0.16362
-0.133306 0.0159285 0.144195
-0.147996 0.0691856 0.121959
-0.159075 0.118268 0.101101
-0.181877 0.142681 0.0865042
-0.201401 0.14938 0.0703731
-0.222668 0.150624 0.0591995
-0.251018 0.12316 0.0593467
-0.259748 0.105587 0.0637472
-0.259658 -0.00144101 0.101172
-0.245487 -0.0920118 0.126836
-0.00752101 0.195801 -0.189256
-0.0143817 0.0914055 -0.174825
-0.0183059 -0.0586849 -0.140922
-0.0209528 -0.14667 -0.108471
-0.0244296 -0.243114 -0.0738859
-0.0309559 -0.230782 -0.039654
-0.0408283 -0.167589 0.00147841
-0.0424815 -0.141739 0.0537261
-0.0768979 -0.105694 0.0977155
-0.101975 -0.0837895 0.11091
-0.135069 -0.0649901 0.0969778
-0.146816 -0.00615911 0.0849963
-0.161657 0.051035 0.0693348
-0.172231 0.104325 0.0550626
-0.185911 0.127874 0.0427775
-0.197361 0.132689 0.025677
-0.209724 0.130003 0.0102374
-0.226217 0.0952021 0.00370653
-0.231648 0.0780479 0.00372266
-0.227496 -0.0299889 0.0374246
-0.211944 -0.119176 0.0629635
1.23745e-05 0.230801 -0.221414
-0.00637548 0.126345 -0.219066
-0.0101769 -0.026458 -0.197264
-0.0137752 -0.121697 -0.169693
-0.019042 -0.222843 -0.140128
-0.0289799 -0.219048 -0.103171
-0.0435675 -0.165312 -0.0561345
-0.0544655 -0.148137 -0.000259597
-0.0850387 -0.118506 0.0542803
-0.107667 -0.103529 0.0734061
-0.133331 -0.0902024 0.0629779
-0.142937 -0.0286863 0.0467717
-0.151395 0.0316358 0.025847
-0.154321 0.0873084 0.00729068
-0.153322 0.112108 -0.0101403
-0.15139 0.116748 -0.0295228
-0.150789 0.112571 -0.0460203
-0.152464 0.0726959 -0.04931
-0.153479 0.0600418 -0.0532868
-0.146132 -0.042833 -0.0202119
-0.132204 -0.126352 0.00967655
0.000115203 0.256907 -0.239351
-0.00624138 0.155153 -0.246559
-0.0101955 0.00484854 -0.234865
-0.0144713 -0.0918345 -0.210695
-0.0232606 -0.191503 -0.185911
-0.037618 -0.192024 -0.147458
-0.0577587 -0.145501 -0.0967442
-0.0780859 -0.136619 -0.0396356
-0.106153 -0.114972 0.0215989
-0.127154 -0.109674 0.0423846
-0.146089 -0.105772 0.0307675
-0.153351 -0.046866 0.00577167
-0.155173 0.0112729 -0.0236336
-0.149519 0.0646964 -0.0482323
-0.134148 0.0873674 -0.0714305
-0.118036 0.0905643 -0.0924743
-0.103468 0.085693 -0.108612
-0.0888818 0.044017 -0.107099
-0.0836727 0.0382996 -0.112699
-0.0717483 -0.0559069 -0.0783351
-0.0582877 -0.131093 -0.0429241
-0.00510118 0.285494 -0.230203
-0.012096 0.188306 -0.243333
-0.0173739 0.0447452 -0.239921
-0.0216251 -0.0522213 -0.218748
-0.0371903 -0.146912 -0.202149
-0.0569747 -0.15339 -0.166646
-0.0834442 -0.117863 -0.117941
-0.111992 -0.119536 -0.0643854
-0.140536 -0.109242 -0.00264417
-0.161118 -0.115552 0.0179795
-0.175017 -0.122054 0.0062164
-0.180606 -0.0651446 -0.0287672
-0.177069 -0.00878866 -0.066866
-0.163454 0.0410831 -0.0964944
-0.136813 0.0620611 -0.123197
-0.10825 0.0630632 -0.14398
-0.0812017 0.0569687 -0.158263
-0.0526668 0.012678 -0.153806
-0.0405977 0.014771 -0.159466
-0.0239989 -0.0670079 -0.127507
-0.00984277 -0.130108 -0.0908352
-0.0115417 0.282965 -0.220056
-0.0192689 0.191729 -0.233101
-0.0252548 0.0574125 -0.231781
-0.030679 -0.0302408 -0.213905
-0.0481011 -0.114868 -0.202932
-0.0709711 -0.115806 -0.173093
-0.102175 -0.0794425 -0.130601
-0.137307 -0.0848149 -0.0829118
-0.166659 -0.0813656 -0.028849
-0.187774 -0.0981991 -0.018167
-0.198744 -0.117657 -0.0412263
-0.202727 -0.0726024 -0.0841239
-0.19604 -0.0272226 -0.126527
-0.17888 0.0136745 -0.155326
-0.145898 0.0264552 -0.181542
-0.111068 0.0241699 -0.199298
-0.0767914 0.0195917 -0.211324
-0.038001 -0.0197402 -0.202052
-0.0200949 -0.00956749 -0.205205
0.00268938 -0.081374 -0.168962
0.0203316 -0.135926 -0.127255
-0.0311232 0.281189 -0.175117
-0.042447 0.196385 -0.184203
-0.0522856 0.072941 -0.183363
-0.0581473 -0.00647068 -0.169957
-0.0801266 -0.0817818 -0.164907
-0.105404 -0.0813336 -0.144129
-0.139457 -0.0491161 -0.113482
-0.175733 -0.0595689 -0.0784429
-0.206977 -0.0646797 -0.0382019
-0.226934 -0.0909363 -0.0370487
-0.234985 -0.120544 -0.0648887
-0.235781 -0.0835365 -0.110678
-0.227002 -0.0459591 -0.151756
-0.208539 -0.0123146 -0.176214
-0.175388 -0.00539406 -0.19711
-0.140088 -0.00992496 -0.20928
-0.104384 -0.0136915 -0.217114
-0.0620915 -0.0495917 -0.210568
-0.0416955 -0.0327548 -0.212421
-0.0150493 -0.0933828 -0.17972
0.00598058 -0.13758 -0.141177
-0.0480896 0.274028 -0.119247
-0.06202 0.195356 -0.121548
-0.073643 0.0821768 -0.118348
-0.0790142 0.0106521 -0.109504
-0.100344 -0.0563523 -0.110008
-0.122815 -0.0557187 -0.100523
-0.153314 -0.02854 -0.0847688
-0.18367 -0.0435815 -0.0647193
-0.210844 -0.0563841 -0.0407449
-0.225104 -0.0901325 -0.0483158
-0.22784 -0.127622 -0.078074
-0.223735 -0.0975292 -0.121481
-0.213353 -0.0663463 -0.15589
-0.196171 -0.0382243 -0.171943
-0.168211 -0.034998 -0.183377
-0.138878 -0.0400272 -0.188067
-0.109047 -0.0421125 -0.192619
-0.0724161 -0.0737565 -0.191751
-0.0547305 -0.0513306 -0.192288
-0.0299729 -0.101739 -0.166204
-0.00922456 -0.136728 -0.134985
-0.0490109 0.262118 -0.0453369
-0.0611413 0.192504 -0.0399141
-0.0693428 0.0934369 -0.0341161
-0.0719253 0.0304097 -0.0329724
-0.0806781 -0.0278973 -0.0398762
-0.0911592 -0.0301844 -0.0461643
-0.108155 -0.0125823 -0.0498637
-0.125706 -0.03211 -0.0467213
-0.13813 -0.0565115 -0.0417483
-0.140823 -0.0979814 -0.052985
-0.135448 -0.142487 -0.0746573
-0.124417 -0.1178 -0.103577
-0.112831 -0.0914723 -0.121391
-0.099478 -0.0674509 -0.122881
-0.0820798 -0.0663619 -0.119935
-0.0655451 -0.0713149 -0.117626
-0.0499351 -0.0731375 -0.12144
-0.032658 -0.103274 -0.134624
-0.0234081 -0.0769542 -0.134425
-0.00977945 -0.11574 -0.122268
0.00306366 -0.139526 -0.105542
-0.054097 0.252476 -0.0261417
-0.0665107 0.186429 -0.0154002
-0.0739726 0.0928798 -0.00481161
-0.0754836 0.0346721 -0.00382233
-0.0791308 -0.0196079 -0.0103079
-0.0827845 -0.0223413 -0.0211048
-0.0904956 -0.00790664 -0.0312445
-0.0961805 -0.0306351 -0.0361956
-0.0970504 -0.0580282 -0.0350531
-0.0883649 -0.101645 -0.0503648
-0.0736538 -0.148186 -0.0734529
-0.0558911 -0.127197 -0.102712
-0.0422409 -0.103211 -0.116975
-0.0315824 -0.0797186 -0.112134
-0.0214604 -0.0789154 -0.101599
-0.0151351 -0.0807746 -0.094982
-0.0102713 -0.0787523 -0.0970853
-0.00405558 -0.103988 -0.110392
-0.00284739 -0.0755816 -0.11116
0.00285399 -0.110777 -0.0991958
0.00973248 -0.132511 -0.0843867
-0.0429461 0.2409 3.09966e-05
-0.0516926 0.181249 0.0137228
-0.0547406 0.0969505 0.0267036
-0.0540553 0.0439908 0.0251272
-0.0467133 -0.00580527 0.0210533
-0.0402866 -0.0118327 0.00696359
-0.0359487 -0.00418458 -0.00758328
-0.0297683 -0.0294238 -0.0182407
-0.0156035 -0.062077 -0.0164569
0.00411341 -0.107274 -0.0283027
0.0264518 -0.154398 -0.0436386
0.0487363 -0.135317 -0.0658615
0.0627518 -0.11244 -0.0727162
0.0696612 -0.0891209 -0.0640392
0.0718593 -0.0876244 -0.0475858
0.0682409 -0.0875446 -0.0402709
0.061441 -0.0839583 -0.0438017
0.0515795 -0.107953 -0.0619534
0.0448308 -0.0788003 -0.0638085
0.0393873 -0.108959 -0.0553539
0.0369203 -0.126805 -0.044819
-0.0315159 0.227516 0.00699803
-0.036676 0.174655 0.0207972
-0.0364593 0.100169 0.0351689
-0.0343668 0.0525857 0.0327868
-0.0213188 0.00678999 0.0336543
-0.00965342 -0.00269628 0.0215814
0.00149523 -0.00162319 0.00921275
0.0139338 -0.0283591 -0.001841
0.0356729 -0.0641461 0.00647948
0.0601684 -0.108598 0.000932236
0.0847617 -0.153947 -0.00638675
0.107794 -0.135929 -0.0242943
0.120679 -0.113782 -0.0286446
0.124827 -0.0905912 -0.0225474
0.121725 -0.0880795 -0.00600031
0.112098 -0.0863048 -0.00175876
0.0985983 -0.0823109 -0.00771152
0.0790799 -0.106467 -0.0262697
0.0680819 -0.0781074 -0.0283735
0.0559761 -0.104625 -0.0191177
0.0479428 -0.119709 -0.00852965
-0.113822 -0.20569 -0.0409581
-0.106865 -0.232409 -0.0165583
-0.0955368 -0.245311 0.0107052
-0.0900389 -0.202253 0.0396079
-0.0675726 -0.161271 0.0492026
-0.0539542 -0.0678225 0.0524793
-0.0378151 0.0326609 0.0470064
-0.0297543 0.0857193 0.0355221
0.00248463 0.123386 0.0202646
0.0280625 0.135837 -0.0195346
0.0581516 0.12451 -0.0694435
0.0920291 0.0787485 -0.0907469
0.131976 0.0280063 -0.0904445
0.184163 -0.0117977 -0.0592412
0.216266 -0.04627 -0.0281339
0.247153 -0.0596648 0.0140879
0.265905 -0.0472633 0.0530602
0.274492 0.00469292 0.0977813
0.265461 0.00209963 0.10627
0.246971 -0.0195916 0.127524
0.219377 -0.043767 0.128609
-0.0976447 -0.209651 -0.00643767
-0.0869441 -0.246033 0.0287892
-0.0718532 -0.268023 0.0655278
-0.0640627 -0.227686 0.099653
-0.0345541 -0.187814 0.110252
-0.0159351 -0.0892083 0.110263
0.00573538 0.0180352 0.0986453
0.0203552 0.0731905 0.0824948
0.0537513 0.111252 0.0585508
0.0801153 0.123576 0.013236
0.10765 0.111851 -0.0408777
0.140994 0.0668583 -0.0657637
0.178326 0.0167703 -0.0663528
0.226712 -0.023013 -0.0319911
0.254216 -0.0548901 0.00298528
0.280162 -0.0649608 0.0498788
0.293076 -0.0462449 0.0932507
0.289438 0.0132229 0.135911
0.277225 0.0155193 0.147474
0.250666 -0.00755005 0.164802
0.215924 -0.0350607 0.158557
-0.0723161 -0.195973 0.0176011
-0.05911 -0.242441 0.0630339
-0.042337 -0.276782 0.110317
-0.0329296 -0.244601 0.150229
-0.000318842 -0.211789 0.165957
0.0215305 -0.114642 0.16699
0.0468986 -0.00613223 0.154403
0.0677853 0.0476957 0.137927
0.0957611 0.0839841 0.109946
0.117354 0.0961602 0.0617345
0.135227 0.0859362 0.00413167
0.161919 0.0468887 -0.0269886
0.18892 0.00290473 -0.0338429
0.224647 -0.0327094 -0.00528342
0.239859 -0.0589031 0.0272208
0.254091 -0.0650087 0.0721769
0.25642 -0.040078 0.115333
0.238001 0.0237074 0.155601
0.224154 0.0316156 0.17086
0.194115 0.0069503 0.189115
0.159906 -0.0246252 0.181723
-0.076278 -0.185537 0.0234938
-0.0644081 -0.235799 0.0745115
-0.0491036 -0.27734 0.128313
-0.039629 -0.251905 0.174757
-0.00764562 -0.226528 0.199084
0.0153339 -0.13377 0.207012
0.041917 -0.0278318 0.199516
0.067407 0.0245644 0.188411
0.0866579 0.0603943 0.160173
0.100424 0.0737624 0.112438
0.105204 0.0666439 0.0543053
0.123925 0.032838 0.0199292
0.139652 -0.00538045 0.00566256
0.164738 -0.0362519 0.0229199
0.165631 -0.0575275 0.0448967
0.169188 -0.0605989 0.0838483
0.163021 -0.0329282 0.123602
0.135935 0.0325401 0.160937
0.123007 0.0426863 0.179138
0.0971396 0.0176899 0.19932
0.0715597 -0.0160996 0.193238
-0.0760373 -0.120294 0.0210937
-0.0698633 -0.187142 0.0811687
-0.0601286 -0.25433 0.149161
-0.0502014 -0.253838 0.201946
-0.0270814 -0.252499 0.247871
-0.00774951 -0.176142 0.268829
0.0147346 -0.0806388 0.273964
0.0432435 -0.036533 0.272138
0.0441069 -0.00444368 0.258432
0.04443 0.0119743 0.214997
0.0303103 0.0138426 0.154766
0.0388936 0.00262799 0.105018
0.0401143 -0.0128864 0.072984
0.0478934 -0.0268407 0.0659817
0.0311859 -0.0336385 0.0746609
0.0191183 -0.0300658 0.099303
-3.9147e-05 -0.000351592 0.130818
-0.0395633 0.0557093 0.164211
-0.050397 0.0690016 0.188361
-0.069718 0.0319763 0.223625
-0.0815182 -0.012888 0.230871
-0.0860168 -0.0689484 -0.0063124
-0.0857541 -0.146043 0.0552773
-0.0811722 -0.232212 0.130241
-0.0726583 -0.251941 0.187618
-0.0543156 -0.272323 0.247681
-0.0363016 -0.210978 0.281226
-0.0149395 -0.124377 0.301177
0.0166132 -0.0852625 0.31063
0.00792326 -0.0528148 0.311801
0.00115513 -0.0311956 0.27604
-0.0241732 -0.0192262 0.218395
-0.0210223 -0.0111407 0.162706
-0.028364 -0.00787922 0.119757
-0.0302711 -0.00721594 0.0951419
-0.0603343 -0.00362908 0.09142
-0.0838336 0.00283427 0.100641
-0.112491 0.0299304 0.121747
-0.160186 0.0751343 0.15257
-0.170733 0.0853627 0.179007
-0.184753 0.0369399 0.224621
-0.185569 -0.0167291 0.24289
-0.0924898 -0.0155057 -0.0475475
-0.0972433 -0.102877 0.011578
-0.0965138 -0.208281 0.0886735
-0.0900478 -0.249008 0.147535
-0.074193 -0.291995 0.21705
-0.056929 -0.24607 0.260083
-0.0357412 -0.167829 0.292645
-0.00198358 -0.131592 0.314252
-0.0148232 -0.0967614 0.33115
-0.0243512 -0.068131 0.305401
-0.0550311 -0.0444285 0.253742
-0.0535716 -0.0153789 0.198068
-0.0649522 0.00798935 0.150192
-0.0716641 0.0239618 0.115004
-0.108999 0.0363114 0.101699
-0.139773 0.043293 0.0978718
-0.175352 0.0639103 0.107627
-0.229416 0.0931593 0.133916
-0.24172 0.0954378 0.160679
-0.25315 0.0318244 0.213443
-0.247296 -0.0313848 0.240931
-0.0861174 0.0213419 -0.0895428
-0.0950175 -0.0728552 -0.0389173
-0.0979829 -0.193174 0.032422
-0.0947953 -0.252147 0.0900363
-0.0823853 -0.313614 0.160473
-0.0685966 -0.281112 0.207299
-0.0510469 -0.208986 0.245333
-0.0187187 -0.17278 0.275328
-0.0379907 -0.132242 0.298399
-0.0512268 -0.0949573 0.281591
-0.085465 -0.058571 0.238101
-0.0846714 -0.0104758 0.192863
-0.0973557 0.0303648 0.150045
-0.106545 0.0593934 0.112459
-0.144617 0.0790362 0.095787
-0.177885 0.0844294 0.0857392
-0.216613 0.0971594 0.0891016
-0.273171 0.111741 0.108958
-0.286692 0.102793 0.130272
-0.296682 0.025903 0.181155
-0.287258 -0.0448925 0.210409
-0.0773477 0.0856683 -0.128929
-0.0883549 -0.0205643 -0.0870608
-0.0936381 -0.162272 -0.0221425
-0.0936222 -0.241121 0.0293579
-0.0834784 -0.325975 0.0958877
-0.0722522 -0.307091 0.141294
-0.057658 -0.241601 0.182564
-0.0299679 -0.208163 0.219255
-0.0468118 -0.167684 0.257106
-0.0576582 -0.126918 0.252456
-0.0874044 -0.0841065 0.220097
-0.0839938 -0.0177459 0.185435
-0.0925611 0.0400546 0.151172
-0.0972935 0.0831212 0.118812
-0.130271 0.105369 0.102896
-0.159586 0.106461 0.0880264
-0.195355 0.108588 0.0831806
-0.248569 0.101993 0.0920224
-0.263981 0.0845998 0.108406
-0.274104 -0.00783618 0.158894
-0.264954 -0.0864768 0.191067
-0.0557379 0.130058 -0.162165
-0.0664604 0.0170058 -0.132936
-0.0725838 -0.138449 -0.0813267
-0.0753905 -0.23171 -0.0393737
-0.0692029 -0.332111 0.0135137
-0.0636564 -0.323314 0.0531664
-0.0566496 -0.263268 0.09432
-0.0387912 -0.231719 0.137473
-0.0591139 -0.190804 0.180284
-0.0726358 -0.148131 0.183159
-0.101334 -0.101902 0.157951
-0.0984348 -0.0240524 0.136081
-0.104392 0.0441278 0.113078
-0.105688 0.0956635 0.0899464
-0.130613 0.118542 0.0782321
-0.153026 0.116073 0.0620442
-0.181757 0.11026 0.051513
-0.225771 0.0901419 0.0510742
-0.240677 0.0670648 0.0618143
-0.248791 -0.0336397 0.107608
-0.239216 -0.115641 0.139007
-0.0307104 0.167772 -0.18773
-0.0400251 0.0511135 -0.172448
-0.0462384 -0.113161 -0.136294
-0.0513927 -0.215935 -0.104627
-0.0501971 -0.326562 -0.0681823
-0.0523259 -0.325087 -0.0351583
-0.0555079 -0.270064 0.00496072
-0.0516417 -0.242029 0.0546579
-0.0776056 -0.20415 0.099958
-0.0960002 -0.164345 0.106939
-0.124281 -0.120646 0.0841785
-0.123205 -0.0380011 0.0714581
-0.12631 0.0345851 0.0570467
-0.12276 0.0903869 0.0421021
-0.135675 0.111483 0.0346623
-0.14666 0.106431 0.0183356
-0.163824 0.0960464 0.00335521
-0.19356 0.068398 -0.00568215
-0.205145 0.0449271 0.00053149
-0.209545 -0.0573308 0.0419723
-0.19941 -0.138596 0.0730945
-0.0158682 0.209695 -0.220739
-0.0241345 0.0919739 -0.218537
-0.0301036 -0.0767837 -0.195983
-0.0367726 -0.188328 -0.17014
-0.0395861 -0.305243 -0.140336
-0.0479361 -0.312652 -0.105028
-0.059327 -0.266266 -0.0587653
-0.0676882 -0.245275 -0.00499065
-0.093383 -0.210897 0.0517254
-0.11131 -0.175659 0.0654124
-0.132794 -0.135545 0.0467027
-0.129823 -0.0506798 0.0295044
-0.125724 0.0239947 0.00971981
-0.113439 0.0800051 -0.00897389
-0.108729 0.101847 -0.021013
-0.104013 0.0957338 -0.038498
-0.106085 0.0833696 -0.0536761
-0.118888 0.0501645 -0.0590327
-0.125706 0.0314429 -0.0570897
-0.127044 -0.0659075 -0.0167443
-0.119248 -0.142119 0.0185127
-0.00961823 0.241434 -0.240797
-0.0171476 0.126134 -0.248719
-0.0227468 -0.0407039 -0.237114
-0.0300841 -0.154076 -0.214994
-0.0380644 -0.269765 -0.190662
-0.0531673 -0.280942 -0.153537
-0.0733268 -0.240365 -0.102716
-0.0940803 -0.226113 -0.0470428
-0.121337 -0.197057 0.0174038
-0.140305 -0.169774 0.033212
-0.156578 -0.138123 0.0131367
-0.152483 -0.0575148 -0.0143648
-0.141928 0.0128363 -0.0439632
-0.120939 0.0635704 -0.068989
-0.0995289 0.0820923 -0.087347
-0.0786269 0.0734807 -0.105932
-0.0646524 0.0600927 -0.119971
-0.0587336 0.0250124 -0.119436
-0.058491 0.013971 -0.119306
-0.0546949 -0.0744754 -0.0776693
-0.0474265 -0.142629 -0.0365264
-0.0103012 0.278359 -0.236103
-0.0175673 0.167955 -0.249292
-0.0234805 0.00800527 -0.245797
-0.0302474 -0.105391 -0.226176
-0.0458501 -0.215332 -0.20994
-0.0681278 -0.231226 -0.175212
-0.0976142 -0.199758 -0.125872
-0.129616 -0.194986 -0.0734774
-0.161891 -0.174227 -0.00868237
-0.183967 -0.157138 0.00673234
-0.197817 -0.135408 -0.0142191
-0.19487 -0.0605331 -0.0547117
-0.180713 0.00415957 -0.0955833
-0.153267 0.046786 -0.125531
-0.119204 0.0623305 -0.148966
-0.0844406 0.0504384 -0.166146
-0.0558105 0.0358789 -0.176638
-0.0321827 -0.00170564 -0.17022
-0.0237429 -0.00372297 -0.170364
-0.0133571 -0.0793414 -0.130868
-0.00414495 -0.135829 -0.088102
-0.0153453 0.275453 -0.226148
-0.0221433 0.172124 -0.239156
-0.027081 0.0231317 -0.238149
-0.0337474 -0.079352 -0.222236
-0.049391 -0.177386 -0.211775
-0.074296 -0.186311 -0.182134
-0.109383 -0.152751 -0.137924
-0.149912 -0.150832 -0.0906215
-0.185384 -0.136238 -0.0319948
-0.210321 -0.130008 -0.0264317
-0.223186 -0.122433 -0.0596286
-0.220238 -0.0613044 -0.109364
-0.204134 -0.00967831 -0.155985
-0.173894 0.0220656 -0.186272
-0.133215 0.0273039 -0.210453
-0.0916477 0.0112367 -0.225598
-0.0548432 -0.00183823 -0.234574
-0.0197331 -0.0339703 -0.223091
-0.00429057 -0.0271331 -0.221041
0.0131833 -0.0918036 -0.176402
0.0264826 -0.139285 -0.127363
-0.0380316 0.276322 -0.181114
-0.0479264 0.180962 -0.189161
-0.0554864 0.0448661 -0.188114
-0.0610149 -0.04755 -0.176593
-0.0794593 -0.134142 -0.171673
-0.105835 -0.140074 -0.150767
-0.143657 -0.109473 -0.118086
-0.186202 -0.112326 -0.083435
-0.225072 -0.105611 -0.0386018
-0.250612 -0.109557 -0.0429797
-0.262367 -0.113515 -0.0815897
-0.258341 -0.0636466 -0.135699
-0.242185 -0.0228626 -0.182343
-0.212583 -0.000628502 -0.208268
-0.17232 -0.00273445 -0.228027
-0.130495 -0.021306 -0.237327
-0.0916555 -0.0332609 -0.241573
-0.0511712 -0.0617981 -0.231458
-0.0323844 -0.0475263 -0.228674
-0.00947613 -0.100571 -0.1875
0.00863315 -0.137721 -0.141473
-0.0605932 0.27073 -0.124422
-0.0729308 0.183235 -0.124642
-0.0811019 0.0594216 -0.120607
-0.084586 -0.023179 -0.11366
-0.100212 -0.0994316 -0.11398
-0.121941 -0.103876 -0.104575
-0.154788 -0.0775986 -0.0871146
-0.190747 -0.0854042 -0.0677702
-0.225163 -0.0865437 -0.0395375
-0.245485 -0.0991716 -0.052834
-0.252764 -0.112868 -0.0932489
-0.245369 -0.0728649 -0.145272
-0.229313 -0.0407981 -0.185321
-0.20279 -0.0251312 -0.202152
-0.168994 -0.0315809 -0.212627
-0.133891 -0.0500387 -0.213786
-0.101059 -0.0595848 -0.214181
-0.0651587 -0.0835219 -0.208738
-0.0487159 -0.0629239 -0.205136
-0.026633 -0.105605 -0.170855
-0.007652 -0.133833 -0.132676
-0.0689437 0.261263 -0.04967
-0.0800133 0.18514 -0.0413916
-0.0843349 0.0774793 -0.0342096
-0.0836962 0.00509797 -0.034975
-0.0851675 -0.0610877 -0.0415925
-0.0926462 -0.0678251 -0.0486282
-0.109579 -0.0510884 -0.0516226
-0.13084 -0.0646801 -0.0495312
-0.147468 -0.0784763 -0.0418599
-0.15461 -0.101064 -0.058431
-0.152774 -0.124509 -0.0892335
-0.139095 -0.0929829 -0.125527
-0.123131 -0.0672947 -0.1478
-0.102404 -0.0540644 -0.14857
-0.0809807 -0.0620971 -0.144144
-0.0600187 -0.0778285 -0.13732
-0.042222 -0.0850466 -0.136483
-0.0251101 -0.107074 -0.14467
-0.0174587 -0.0816995 -0.140957
-0.00585518 -0.113609 -0.121718
0.00608811 -0.131964 -0.0993689
-0.0766058 0.250709 -0.0306079
-0.0882754 0.179222 -0.0164797
-0.0915904 0.0784744 -0.00404155
-0.0892558 0.0121939 -0.00495779
-0.083877 -0.048848 -0.0110739
-0.0826284 -0.0557251 -0.022624
-0.0883171 -0.0425686 -0.0319686
-0.0959023 -0.0603786 -0.0378169
-0.0994674 -0.0786075 -0.0336938
-0.0940531 -0.104851 -0.054184
-0.0822477 -0.131848 -0.0860242
-0.0614509 -0.10521 -0.121671
-0.043802 -0.08237 -0.139288
-0.0266703 -0.0693021 -0.132559
-0.0137963 -0.0770853 -0.11991
-0.004606 -0.0886639 -0.108142
0.00110633 -0.0915386 -0.105326
0.00592928 -0.108653 -0.113255
0.00494946 -0.0814065 -0.111027
0.00797617 -0.109689 -0.092283
0.0135633 -0.125856 -0.072787
-0.0657812 0.240198 -0.00335461
-0.0744545 0.176528 0.0137966
-0.0739148 0.0863482 0.028859
-0.069243 0.0262256 0.0252612
-0.0532052 -0.0299633 0.022016
-0.0410775 -0.0405864 0.00733901
-0.0334753 -0.0351827 -0.00641858
-0.0274169 -0.0571984 -0.0177109
-0.0137452 -0.0825344 -0.0135044
0.00461211 -0.112445 -0.029926
0.0256018 -0.141963 -0.0527689
0.0515645 -0.118288 -0.0800623
0.0693243 -0.0961959 -0.0891253
0.0813427 -0.0806988 -0.0776427
0.0849101 -0.0860588 -0.0585484
0.0825197 -0.0931823 -0.0459448
0.0750497 -0.0929032 -0.0446455
0.0624709 -0.109064 -0.0577836
0.0529355 -0.0811238 -0.057095
0.0444541 -0.105307 -0.0427994
0.0405592 -0.118611 -0.0287012
-0.050722 0.227894 0.00474062
-0.0564493 0.172267 0.0217543
-0.0538039 0.0931869 0.0382588
-0.0482954 0.0393132 0.0340613
-0.0284612 -0.0125947 0.0362732
-0.0117356 -0.0272261 0.0238177
0.00262576 -0.0294764 0.0121737
0.0158177 -0.0546527 0.000673683
0.037958 -0.0848407 0.0109282
0.0621742 -0.115983 0.00154136
0.086345 -0.145521 -0.0119349
0.113313 -0.123665 -0.0337367
0.129571 -0.101709 -0.0393669
0.137438 -0.0837584 -0.0302971
0.134886 -0.0862455 -0.0110955
0.125245 -0.0892282 -0.00197963
0.110028 -0.0871797 -0.00347318
0.0866572 -0.104189 -0.0176657
0.0728852 -0.077046 -0.0173462
0.0577541 -0.0986785 -0.00312066
0.0484507 -0.110323 0.0100681
-0.112746 -0.263868 -0.0470798
-0.100851 -0.293805 -0.0245179
-0.0825598 -0.303726 0.000665334
-0.0706963 -0.257684 0.0259721
-0.0359547 -0.211686 0.0353686
-0.0119832 -0.117359 0.0377497
0.0134567 -0.0196331 0.033352
0.0261735 0.0344172 0.0200307
0.062294 0.0591469 0.0116551
0.086649 0.0724793 -0.0294132
0.112928 0.0666842 -0.0839529
0.142393 0.0378582 -0.104321
0.17909 -0.00219574 -0.102639
0.23023 -0.0414646 -0.071263
0.261088 -0.0809396 -0.0397935
0.292747 -0.104937 0.00295925
0.312538 -0.102585 0.0450231
0.318705 -0.0495357 0.0951182
0.312782 -0.0547228 0.111473
0.292313 -0.0658495 0.143188
0.261082 -0.0773592 0.151512
-0.102005 -0.271818 -0.018292
-0.0862607 -0.311862 0.0154436
-0.0634539 -0.330698 0.0507871
-0.0477924 -0.287052 0.0824341
-0.00353342 -0.24268 0.0945893
0.0280782 -0.144267 0.0952281
0.0614248 -0.0416288 0.0860107
0.0822007 0.0129506 0.0684105
0.120389 0.0360829 0.0522431
0.144941 0.0496559 0.0051896
0.166928 0.0453067 -0.0549375
0.193893 0.0189947 -0.0812846
0.226163 -0.0192403 -0.0829033
0.272491 -0.0593258 -0.0500285
0.297669 -0.0962867 -0.0160983
0.324542 -0.118404 0.0314176
0.339226 -0.11083 0.0790634
0.334482 -0.0496485 0.129696
0.326189 -0.0496869 0.150632
0.298486 -0.0600939 0.18054
0.260485 -0.0728917 0.182834
-0.0799257 -0.259185 0.00056008
-0.0621296 -0.309179 0.0450885
-0.0378338 -0.340038 0.0921306
-0.0198037 -0.30452 0.131299
0.0290203 -0.268218 0.151275
0.0658923 -0.17307 0.155128
0.105186 -0.0718185 0.146702
0.1339 -0.0208693 0.129649
0.167501 -0.00196232 0.10985
0.18693 0.0115223 0.0589821
0.197807 0.0103704 -0.00654553
0.216558 -0.00842945 -0.0421972
0.236788 -0.0393721 -0.05323
0.269127 -0.0758052 -0.0285656
0.280484 -0.106611 0.00115017
0.294957 -0.125696 0.0462829
0.298694 -0.112284 0.0940145
0.279164 -0.0456708 0.143709
0.2694 -0.0394396 0.169043
0.238774 -0.0494385 0.201371
0.201937 -0.0646679 0.203749
-0.0844846 -0.245439 0.00289951
-0.0684208 -0.298331 0.0527508
-0.0462094 -0.335693 0.10699
-0.0283481 -0.306611 0.154752
0.0197794 -0.278462 0.185589
0.058286 -0.189129 0.198675
0.099718 -0.0928334 0.197094
0.134418 -0.0457853 0.186734
0.160332 -0.0298169 0.16648
0.172683 -0.0164885 0.115877
0.170562 -0.0148322 0.0490604
0.181111 -0.0276361 0.0080502
0.189297 -0.0519159 -0.0131006
0.209936 -0.0831703 -0.00248637
0.205227 -0.108712 0.0147094
0.207457 -0.124968 0.0522863