# vtk DataFile Version 2.0
Func
ASCII
DATASET RECTILINEAR_GRID
DIMENSIONS 21 21 21
X_COORDINATES 21 double
-4.7619
-4.28571
-3.80952
-3.33333
-2.85714
-2.38095
-1.90476
-1.42857
-0.952381
-0.47619
0
0.47619
0.952381
1.42857
1.90476
2.38095
2.85714
3.33333
3.80952
4.28571
4.7619
Y_COORDINATES 21 double
-4.7619
-4.28571
-3.80952
-3.33333
-2.85714
-2.38095
-1.90476
-1.42857
-0.952381
-0.47619
0
0.47619
0.952381
1.42857
1.90476
2.38095
2.85714
3.33333
3.80952
4.28571
4.7619
Z_COORDINATES 21 double
-4.7619
-4.28571
-3.80952
-3.33333
-2.85714
-2.38095
-1.90476
-1.42857
-0.952381
-0.47619
0
0.47619
0.952381
1.42857
1.90476
2.38095
2.85714
3.33333
3.80952
4.28571
4.7619
POINT_DATA 9261
SCALARS data double 3
LOOKUP_TABLE default
0.0392248 -0.062191 -0.00194567
0.0516627 -0.0568329 -0.0348145
0.0653043 -0.0343376 -0.0813343
0.0814158 0.000523315 -0.134293
0.100015 0.0314461 -0.178339
0.120942 0.0461066 -0.205717
0.143909 0.0322199 -0.208615
0.167354 -0.0104682 -0.189108
0.189275 -0.0740252 -0.155178
0.206144 -0.14674 -0.118336
0.214107 -0.211698 -0.0886374
0.209347 -0.256374 -0.0696289
0.189853 -0.273981 -0.0579151
0.156221 -0.262856 -0.0448021
0.110021 -0.22669 -0.0232904
0.0555271 -0.172235 0.0120448
-0.00158811 -0.110211 0.0586032
-0.0551786 -0.0488007 0.102924
-0.0986736 0.00339072 0.133185
-0.127081 0.0397444 0.142733
-0.136106 0.0572269 0.128328
0.0364248 -0.0697013 0.0213008
0.0437786 -0.0617595 -0.0173309
0.0541643 -0.0336919 -0.0799386
0.0703551 0.00725671 -0.154848
0.0938659 0.0406599 -0.220947
0.124507 0.0514314 -0.26363
0.160588 0.0261965 -0.268602
0.198176 -0.0324425 -0.238407
0.231773 -0.111956 -0.185116
0.254131 -0.196655 -0.126005
0.259301 -0.265479 -0.0775781
0.242966 -0.305167 -0.0471967
0.204796 -0.311145 -0.0319151
0.147916 -0.285535 -0.0210274
0.0770035 -0.236738 -0.00389266
6.00027e-05 -0.17532 0.0279408
-0.074713 -0.112803 0.0733682
-0.139001 -0.0548058 0.117406
-0.185645 -0.00708523 0.149209
-0.209915 0.0255725 0.16007
-0.208685 0.0423801 0.145551
0.0294865 -0.069878 0.0543135
0.0286734 -0.0572044 0.0143718
0.0323817 -0.0228756 -0.0605836
0.0451505 0.0228903 -0.155315
0.0703061 0.0556475 -0.243014
0.108086 0.0579621 -0.300811
0.154896 0.0164133 -0.307516
0.204088 -0.0616784 -0.265918
0.245931 -0.1575 -0.19315
0.269405 -0.249982 -0.112286
0.267119 -0.314993 -0.046692
0.235046 -0.340178 -0.00787604
0.175272 -0.325576 0.00647906
0.0948369 -0.27996 0.00915079
0.00199568 -0.217677 0.0145824
-0.0919646 -0.15399 0.0348304
-0.176381 -0.10007 0.0709782
-0.241858 -0.0566789 0.108662
-0.28194 -0.0240794 0.138737
-0.293966 -0.00264273 0.151154
-0.277142 0.0104086 0.13972
0.0225466 -0.0679838 0.0935919
0.01317 -0.0486124 0.0546087
0.00917041 -0.00663638 -0.0294849
0.0169685 0.0440809 -0.139951
0.0414014 0.075666 -0.245947
0.0823679 0.068492 -0.316598
0.134858 0.00963637 -0.324213
0.189862 -0.0880707 -0.272251
0.233624 -0.198519 -0.183329
0.252366 -0.294663 -0.0857676
0.238163 -0.349879 -0.00900079
0.188289 -0.353945 0.032075
0.107835 -0.313148 0.0397224
0.00766882 -0.244568 0.0293675
-0.0998896 -0.16964 0.0188091
-0.201122 -0.108269 0.0233438
-0.284837 -0.07021 0.0464988
-0.341925 -0.0497701 0.0768614
-0.367729 -0.040342 0.1047
-0.362134 -0.0366015 0.11896
-0.328202 -0.0305567 0.113053
0.0235991 -0.0658515 0.128287
0.00908199 -0.0381374 0.090662
-0.000390453 0.0129257 0.000883778
0.00304229 0.0694559 -0.119804
0.0244346 0.10057 -0.236876
0.0640629 0.0845988 -0.315146
0.115187 0.00968445 -0.321935
0.167697 -0.105628 -0.262218
0.205414 -0.227593 -0.163376
0.213045 -0.322975 -0.0577679
0.183346 -0.363399 0.0213221
0.115799 -0.341822 0.0574876
0.0185704 -0.271902 0.0540517
-0.0942946 -0.179906 0.0294556
-0.207337 -0.0948491 0.00414587
-0.305441 -0.040441 -0.0053439
-0.378113 -0.0244123 0.00637707
-0.418722 -0.0330264 0.0313396
-0.4248 -0.0529554 0.0585847
-0.3999 -0.0715271 0.0750709
-0.350612 -0.0750639 0.0751938
0.0329608 -0.0647526 0.153015
0.0186711 -0.0277675 0.116485
0.0085141 0.0336528 0.0242036
0.0103205 0.0972649 -0.100123
0.0288347 0.12949 -0.220532
0.0633691 0.106581 -0.300097
0.106431 0.0182183 -0.30455
0.148095 -0.111453 -0.240907
0.171717 -0.241192 -0.139975
0.162528 -0.331771 -0.0363869
0.115537 -0.353861 0.0357582
0.0332929 -0.304447 0.061018
-0.0733367 -0.205198 0.0449921
-0.188376 -0.0917965 0.00871214
-0.29517 -0.000460358 -0.0257344
-0.37927 0.0420764 -0.0426383
-0.4327 0.0312632 -0.0368027
-0.451966 -0.0106025 -0.0139336
-0.437749 -0.0630346 0.0139686
-0.39654 -0.105446 0.0330985
-0.337244 -0.119321 0.0389184
0.0456984 -0.0649808 0.158312
0.0370155 -0.018909 0.12032
0.0319071 0.0533186 0.0278161
0.036803 0.124453 -0.0939723
0.0547416 0.159276 -0.209101
0.0837931 0.131537 -0.281802
0.116435 0.0330984 -0.280236
0.143465 -0.106727 -0.214385
0.149354 -0.239923 -0.117095
0.121773 -0.322166 -0.0236177
0.059061 -0.324108 0.0343267
-0.0327489 -0.247356 0.0450344
-0.140705 -0.12158 0.0179096
-0.248329 0.0087694 -0.0234729
-0.339895 0.101597 -0.0570668
-0.403383 0.127983 -0.0696138
-0.434235 0.0875047 -0.0585431
-0.432996 0.0115382 -0.0310398
-0.403018 -0.0730011 -0.000473203
-0.352912 -0.137758 0.0191616
-0.291943 -0.160975 0.0251541
0.0487651 -0.0643769 0.136607
0.0490756 -0.0106177 0.0959487
0.0533097 0.0705913 0.00751093
0.06581 0.147738 -0.102675
0.0868291 0.184382 -0.199945
0.112547 0.152474 -0.253791
0.135484 0.0469859 -0.239089
0.147294 -0.0981504 -0.169939
0.13538 -0.229765 -0.0799361
0.0913886 -0.300061 -0.00305535
0.0176772 -0.280916 0.034582
-0.076308 -0.179061 0.0278183
-0.176399 -0.0316614 -0.00859253
-0.267209 0.109456 -0.0485596
-0.335982 0.198076 -0.0716699
-0.37503 0.205142 -0.0686004
-0.383541 0.134535 -0.0416918
-0.365821 0.026616 -0.00328219
-0.327517 -0.0860755 0.0302813
-0.277482 -0.168799 0.0462762
-0.223586 -0.198216 0.0446471
0.0294609 -0.0610656 0.0867161
0.0386928 -0.0021618 0.042864
0.0540343 0.0841358 -0.0352796
0.07716 0.163352 -0.122805
0.105048 0.198731 -0.189179
0.131513 0.1622 -0.211709
0.148727 0.0528004 -0.17594
0.149467 -0.0919434 -0.100918
0.124745 -0.215859 -0.0198199
0.0708701 -0.270042 0.0367235
-0.00593171 -0.229203 0.0506713
-0.093519 -0.105617 0.025414
-0.177466 0.0570227 -0.0180338
-0.244716 0.201559 -0.0514679
-0.28686 0.279966 -0.0572799
-0.301366 0.264997 -0.0312535
-0.291152 0.165638 0.0177204
-0.263459 0.0302657 0.0697516
-0.225048 -0.103973 0.10541
-0.183385 -0.198608 0.113164
-0.143644 -0.230285 0.0959466
-0.0153523 -0.0526674 0.0155923
0.000499737 0.00753653 -0.030672
0.0268355 0.0929735 -0.0937185
0.0623988 0.167648 -0.151495
0.100715 0.196531 -0.179391
0.133114 0.153575 -0.163276
0.151029 0.0427868 -0.101531
0.148082 -0.0957159 -0.0182924
0.11881 -0.205159 0.0545384
0.0640636 -0.238315 0.091184
-0.00690417 -0.174532 0.0826222
-0.0804088 -0.0320797 0.041199
-0.142652 0.139862 -0.00603808
-0.183617 0.28098 -0.0295693
-0.199795 0.343822 -0.0152707
-0.193675 0.304817 0.0357035
-0.171147 0.178556 0.107514
-0.141159 0.020398 0.171562
-0.110526 -0.12866 0.206501
-0.0840292 -0.22863 0.202621
-0.062961 -0.25803 0.16551
-0.0778172 -0.0377191 -0.0640511
-0.0587188 0.019003 -0.111405
-0.0229489 0.0956033 -0.157123
0.0252613 0.157456 -0.183202
0.0762866 0.173301 -0.171753
0.119138 0.121398 -0.116546
0.144156 0.0112932 -0.0287949
0.145332 -0.11539 0.0629031
0.120048 -0.20377 0.128488
0.0729508 -0.211154 0.147753
0.0151676 -0.123281 0.120142
-0.039212 0.0353011 0.0658438
-0.0776254 0.211161 0.0166828
-0.0932221 0.343096 0.00257224
-0.0870813 0.386523 0.0342914
-0.065896 0.323172 0.106002
-0.0375459 0.173418 0.195953
-0.0115669 -0.0017434 0.268054
0.00601525 -0.158459 0.300202
0.013637 -0.257558 0.284709
0.0141078 -0.280418 0.229294
-0.139029 -0.0167907 -0.136216
-0.118734 0.031003 -0.183944
-0.0751272 0.0903023 -0.214605
-0.0151417 0.130926 -0.214415
0.0491102 0.127306 -0.171591
0.104785 0.0641481 -0.0858717
0.141036 -0.0434036 0.0212983
0.151834 -0.15334 0.118483
0.136491 -0.214973 0.177857
0.102344 -0.192658 0.184406
0.0612888 -0.079918 0.143914
0.0269644 0.0924246 0.0817688
0.0104196 0.268005 0.0322686
0.0157449 0.386822 0.0245308
0.0382562 0.40906 0.0667375
0.0682797 0.322934 0.149935
0.0968885 0.154408 0.248873
0.11475 -0.0314872 0.323414
0.117085 -0.189153 0.35197
0.105296 -0.282231 0.32881
0.0857571 -0.295626 0.262938
-0.176301 0.00772324 -0.184797
-0.154537 0.0418294 -0.233295
-0.104161 0.0766493 -0.255935
-0.0342385 0.0893517 -0.242106
0.041556 0.0615553 -0.184058
0.109268 -0.0140035 -0.084574
0.157158 -0.117087 0.0296854
0.179 -0.206372 0.126924
0.175159 -0.237338 0.181783
0.15445 -0.18318 0.182924
0.128716 -0.0459683 0.138964
0.110738 0.137689 0.0765356
0.110124 0.309925 0.0292282
0.129017 0.41372 0.0239248
0.160564 0.415339 0.0672879
0.193489 0.309995 0.149417
0.218559 0.128571 0.245003
0.226975 -0.0616886 0.314969
0.215212 -0.214699 0.339565
0.186682 -0.298329 0.314873
0.15016 -0.3013 0.250227
-0.170934 0.0313214 -0.197989
-0.14519 0.048358 -0.248615
-0.0890167 0.0551812 -0.273251
-0.0124595 0.0372007 -0.262185
0.0703572 -0.0159621 -0.208822
0.145326 -0.102847 -0.115977
0.20055 -0.199246 -0.00898125
0.22981 -0.265482 0.0828671
0.233892 -0.2646 0.136644
0.221996 -0.179395 0.142397
0.20552 -0.0203423 0.107366
0.196438 0.171264 0.0547422
0.203248 0.337609 0.0137464
0.227107 0.426078 0.00747226
0.260497 0.409672 0.0421855
0.291836 0.290374 0.109354
0.312019 0.102841 0.187437
0.312687 -0.085471 0.244239
0.291155 -0.229389 0.263082
0.251457 -0.301831 0.241767
0.203198 -0.295148 0.18934
-0.119723 0.0454596 -0.17323
-0.0878153 0.044294 -0.22616
-0.027486 0.0243075 -0.261708
0.0508423 -0.0205256 -0.26894
0.133769 -0.0939626 -0.238626
0.208442 -0.186935 -0.170322
0.263947 -0.273412 -0.0826109
0.294225 -0.316047 0.0001288
0.300066 -0.285987 0.0572635
0.290117 -0.175146 0.0778131
0.275149 -0.000968652 0.0638731
0.266539 0.19252 0.0310678
0.272065 0.349453 0.0010844
0.292794 0.422765 -0.00806743
0.321858 0.392242 0.0103606
0.348482 0.265685 0.0511931
0.363914 0.0798455 0.0997312
0.360121 -0.0998531 0.134793
0.3347 -0.230742 0.144345
0.290931 -0.290957 0.1285
0.237661 -0.276495 0.0953005
-0.0298988 0.0439556 -0.114457
0.00907985 0.0267109 -0.168512
0.0702491 -0.0139071 -0.219845
0.143941 -0.076598 -0.255152
0.218894 -0.160709 -0.260591
0.284126 -0.251922 -0.228915
0.330746 -0.324362 -0.167241
0.354016 -0.345074 -0.0933334
0.354198 -0.292406 -0.0263258
0.338706 -0.16581 0.0197242
0.317632 0.0128106 0.0386143
0.301942 0.199361 0.0351794
0.299028 0.342049 0.0211528
0.310499 0.400309 0.00842779
0.331057 0.360285 0.00493436
0.351483 0.234054 0.0101956
0.363791 0.0584339 0.0185015
0.359991 -0.105655 0.0226665
0.33727 -0.21959 0.0172523
0.297186 -0.266799 0.00458495
0.246475 -0.246507 -0.00871536
0.0772801 0.025449 -0.0357878
0.122145 -0.00420747 -0.0883956
0.179903 -0.0562473 -0.155421
0.242993 -0.125713 -0.220346
0.302745 -0.208821 -0.263935
0.350985 -0.289853 -0.271331
0.381109 -0.344768 -0.235488
0.390176 -0.345818 -0.166805
0.378375 -0.278423 -0.083844
0.351386 -0.147071 -0.00490003
0.318665 0.0247275 0.0540308
0.290904 0.195519 0.0856166
0.275339 0.319466 0.0907212
0.274443 0.363056 0.0747648
0.28482 0.318011 0.047077
0.29938 0.198941 0.0123367
0.310912 0.0407299 -0.0253141
0.311447 -0.102304 -0.0581151
0.297292 -0.196911 -0.0844662
0.267757 -0.231402 -0.0995825
0.226707 -0.207735 -0.0982882
0.169719 -0.00700278 0.0404316
0.216545 -0.0437446 -0.00779784
0.266105 -0.097221 -0.0844026
0.313872 -0.161995 -0.169292
0.354401 -0.233408 -0.240376
0.381752 -0.296795 -0.277691
0.392341 -0.332236 -0.262453
0.385032 -0.317475 -0.197736
0.360058 -0.243998 -0.101127
0.321268 -0.118901 0.00527343
0.277465 0.0354378 0.0978848
0.23878 0.182579 0.159413
0.212137 0.284081 0.181624
0.200612 0.313641 0.164424
0.202402 0.267532 0.117407
0.212449 0.161207 0.0495493
0.224515 0.0258842 -0.0265994
0.230975 -0.09238 -0.0918393
0.227437 -0.16663 -0.138548
0.211287 -0.189206 -0.160341
0.183518 -0.164352 -0.152707
0.228912 -0.0476927 0.0996455
0.273452 -0.0863929 0.0611205
0.311734 -0.132958 -0.0144421
0.342314 -0.183672 -0.106453
0.361936 -0.234734 -0.190551
0.367668 -0.275424 -0.244583
0.358298 -0.291 -0.24241
0.334602 -0.265518 -0.182563
0.298056 -0.194237 -0.0800613
0.251078 -0.0849733 0.041231
0.201528 0.0434171 0.1535
0.158374 0.161308 0.233397
0.127541 0.238506 0.266759
0.111777 0.255618 0.24948
0.109922 0.212245 0.190577
0.118174 0.123036 0.102108
0.131338 0.0141722 0.00140686
0.14275 -0.0775293 -0.0858176
0.147944 -0.131833 -0.14832
0.14367 -0.14428 -0.177275
0.128771 -0.120661 -0.169573
0.244549 -0.0857923 0.131559
0.282142 -0.122049 0.105549
0.308018 -0.156887 0.0406622
0.322382 -0.188782 -0.045461
0.324304 -0.2166 -0.129197
0.313415 -0.234214 -0.186698
0.290217 -0.232737 -0.190985
0.256535 -0.202053 -0.137776
0.214394 -0.13931 -0.0396574
0.166166 -0.0517744 0.0810401
0.118023 0.0464919 0.195969
0.0772208 0.133383 0.280226
0.0482486 0.186895 0.317437
0.0330212 0.193775 0.301251
0.0304518 0.155779 0.239799
0.0376062 0.0856016 0.14592
0.0504679 0.0037262 0.0381387
0.0641063 -0.0622752 -0.0571139
0.0744775 -0.0984187 -0.125864
0.0783806 -0.102976 -0.159004
0.0738604 -0.0820577 -0.154745
0.21755 -0.111198 0.131693
0.245242 -0.142112 0.118519
0.259742 -0.164417 0.0707097
0.262159 -0.178999 0.00183447
0.252699 -0.186935 -0.0686673
0.232717 -0.186114 -0.118314
0.203567 -0.172838 -0.123983
0.16791 -0.141903 -0.0808222
0.127788 -0.0916264 0.001246
0.0853864 -0.0272729 0.104312
0.0458077 0.041657 0.203676
0.0138577 0.100091 0.277424
-0.00769733 0.133253 0.310652
-0.0180777 0.132801 0.296767
-0.0187499 0.101538 0.242377
-0.0118933 0.0497195 0.158805
-0.000433685 -0.00767907 0.0624155
0.0123759 -0.0514155 -0.024313
0.0231898 -0.0727621 -0.0876067
0.0299899 -0.0717242 -0.119494
0.0308799 -0.0541524 -0.119303
0.0604783 -0.110619 0.00901286
0.0810768 -0.10094 -0.0297983
0.101396 -0.0598192 -0.0875303
0.121387 0.00439899 -0.15407
0.140127 0.0683721 -0.209717
0.157973 0.111905 -0.242944
0.175759 0.112928 -0.243466
0.193146 0.0683087 -0.214716
0.209864 -0.0120204 -0.168183
0.223943 -0.112662 -0.119413
0.231527 -0.209797 -0.0825799
0.228007 -0.284295 -0.0624655
0.210298 -0.324138 -0.0541163
0.177312 -0.324168 -0.0453962
0.129769 -0.286996 -0.026496
0.0711347 -0.221062 0.00983085
0.00756788 -0.139749 0.0612563
-0.0534508 -0.0567582 0.111718
-0.103843 0.0146066 0.145989
-0.13735 0.0638404 0.155973
-0.148758 0.0863795 0.138077
0.0535743 -0.125552 0.0372239
0.0666578 -0.11361 -0.00853655
0.0813626 -0.0652065 -0.0856737
0.0995032 0.00767116 -0.178375
0.122353 0.0762504 -0.25978
0.150472 0.1169 -0.310056
0.183255 0.105618 -0.31133
0.217734 0.0426866 -0.268154
0.249546 -0.0562604 -0.19753
0.272223 -0.171078 -0.122135
0.279049 -0.272897 -0.0640224
0.264482 -0.341557 -0.0322519
0.227272 -0.367476 -0.0218164
0.168761 -0.349703 -0.0175913
0.0934434 -0.29649 -0.00500081
0.00897253 -0.220539 0.0269015
-0.0750325 -0.136265 0.0773964
-0.148361 -0.054851 0.128171
-0.201736 0.0125304 0.163749
-0.229455 0.0572991 0.174032
-0.228194 0.07717 0.154466
0.0371437 -0.12939 0.0756861
0.0379707 -0.113177 0.0282294
0.0423165 -0.0583546 -0.0635344
0.0543749 0.0193224 -0.179329
0.0778676 0.086312 -0.285254
0.114182 0.116512 -0.351725
0.160803 0.085615 -0.35292
0.211228 -0.000184389 -0.294395
0.255805 -0.117593 -0.199834
0.283253 -0.240218 -0.0990444
0.284729 -0.335807 -0.0222976
0.254631 -0.385522 0.0168174
0.194436 -0.385356 0.0232843
0.109887 -0.34204 0.0153888
0.00965202 -0.270995 0.0127761
-0.0944223 -0.190269 0.030664
-0.189685 -0.113751 0.0707988
-0.264454 -0.0472125 0.11497
-0.309994 0.00340003 0.148637
-0.323024 0.0343493 0.160288
-0.303379 0.0475174 0.143742
0.0196105 -0.12643 0.119512
0.00785099 -0.103462 0.0729505
0.00100596 -0.0417798 -0.0294434
0.00576485 0.0385629 -0.163149
0.027786 0.100393 -0.289327
0.0684299 0.116123 -0.368867
0.123482 0.0625057 -0.368738
0.183602 -0.0471008 -0.296051
0.233803 -0.180552 -0.181666
0.259218 -0.304645 -0.0618481
0.249937 -0.384927 0.0259886
0.201567 -0.405868 0.0647177
0.119062 -0.371444 0.0600385
0.0125576 -0.298297 0.0342459
-0.104273 -0.210554 0.011292
-0.216806 -0.131072 0.0104651
-0.311309 -0.0719296 0.0361916
-0.376435 -0.031163 0.0728645
-0.405527 -0.00756335 0.104605
-0.398185 0.00190884 0.11895
-0.358842 0.00508997 0.109288
0.0131342 -0.118679 0.156403
-0.00606375 -0.0864522 0.110967
-0.0203121 -0.016665 0.0018037
-0.0210082 0.0659449 -0.143456
-0.00222169 0.121359 -0.281451
0.0380239 0.121299 -0.367875
0.0933756 0.0448176 -0.364393
0.152963 -0.0869649 -0.280659
0.198723 -0.232786 -0.153856
0.213595 -0.352361 -0.0253302
0.188177 -0.410273 0.0630233
0.12055 -0.39596 0.0927573
0.0193075 -0.323095 0.0715789
-0.101615 -0.219543 0.0262928
-0.224708 -0.118737 -0.015582
-0.333703 -0.0472265 -0.033092
-0.415587 -0.0142274 -0.0196379
-0.461754 -0.00787722 0.0123021
-0.468395 -0.0191186 0.0450278
-0.439132 -0.0364184 0.0636723
-0.382596 -0.0449315 0.0627318
0.0206646 -0.108927 0.180569
0.0012844 -0.0655965 0.135468
-0.0138258 0.0138425 0.0229824
-0.0160338 0.0997688 -0.126457
0.000172502 0.149727 -0.26753
0.0356927 0.135036 -0.353946
0.0830861 0.0379697 -0.346085
0.131501 -0.112583 -0.256541
0.162068 -0.26651 -0.127038
0.157938 -0.376642 -0.00191158
0.112207 -0.407715 0.0761522
0.0267211 -0.355355 0.0902641
-0.086532 -0.243877 0.0514258
-0.210931 -0.112782 -0.00979488
-0.327271 -0.00437292 -0.0633633
-0.41998 0.0522779 -0.0891705
-0.479001 0.0521948 -0.0810766
-0.499615 0.0182614 -0.0493645
-0.482133 -0.0319945 -0.0132764
-0.433688 -0.0777399 0.0111406
-0.365691 -0.0979852 0.0192239
0.0380395 -0.0995901 0.183023
0.0256638 -0.0446156 0.135086
0.0172578 0.0457165 0.021554
0.019543 0.136198 -0.125277
0.0360996 0.183116 -0.26007
0.0662795 0.156709 -0.338076
0.102377 0.043318 -0.322931
0.134328 -0.121063 -0.230911
0.144009 -0.278316 -0.106352
0.117141 -0.375391 0.00549724
0.0507359 -0.378213 0.0650268
-0.0488643 -0.289219 0.0600758
-0.166808 -0.143311 0.00646258
-0.2851 0.00915342 -0.0618917
-0.385204 0.118732 -0.114702
-0.453901 0.154576 -0.134479
-0.485465 0.11728 -0.118506
-0.480344 0.0414541 -0.0790196
-0.442751 -0.0475487 -0.036735
-0.382713 -0.119923 -0.00853805
-0.312147 -0.15009 0.00261723
0.0472035 -0.0903057 0.156523
0.0460927 -0.0247674 0.104309
0.0495693 0.0754606 -0.00533669
0.0619214 0.170429 -0.139304
0.083353 0.21557 -0.253786
0.110765 0.180026 -0.310531
0.136329 0.0551051 -0.281251
0.150489 -0.116901 -0.186838
0.138189 -0.27186 -0.0723838
0.0894805 -0.352651 0.0183293
0.00626688 -0.327524 0.0526389
-0.100536 -0.206002 0.0262772
-0.214048 -0.0327224 -0.0386418
-0.316513 0.132839 -0.105314
-0.39224 0.236263 -0.145339
-0.432512 0.247222 -0.14579
-0.436224 0.171759 -0.109787
-0.408953 0.0563381 -0.0554432
-0.358593 -0.0669803 -0.00668679
-0.296309 -0.160797 0.0204402
-0.232403 -0.197336 0.0254498
0.0292483 -0.0808508 0.100524
0.0387892 -0.00757075 0.0437586
0.055594 0.0991889 -0.0545393
0.0812227 0.196344 -0.162759
0.112183 0.238861 -0.241958
0.142014 0.196282 -0.263679
0.162019 0.0655773 -0.212119
0.163436 -0.106368 -0.113405
0.135077 -0.251956 -0.0116282
0.0720202 -0.312728 0.0534799
-0.0190288 -0.260676 0.0591711
-0.123445 -0.112387 0.0112985
-0.22337 0.0793252 -0.0609806
-0.302636 0.248472 -0.118897
-0.349858 0.338459 -0.137593
-0.361662 0.321512 -0.110169
-0.341653 0.209934 -0.0475572
-0.299494 0.0604576 0.0240982
-0.245319 -0.0893428 0.0776491
-0.189692 -0.197743 0.097621
-0.139976 -0.236562 0.0865591
-0.022749 -0.0701842 0.022708
-0.0063785 0.00576987 -0.0372221
0.0226615 0.112934 -0.118096
0.0632477 0.206401 -0.191918
0.108107 0.24297 -0.226825
0.147073 0.194149 -0.205339
0.169981 0.0629899 -0.126475
0.168352 -0.100723 -0.0214854
0.134728 -0.228758 0.067874
0.0689383 -0.264609 0.107935
-0.0185292 -0.185608 0.0870287
-0.110877 -0.0153495 0.0215105
-0.190329 0.186899 -0.0529552
-0.243164 0.35143 -0.0969778
-0.262868 0.422337 -0.0903635
-0.251166 0.376224 -0.0326941
-0.21538 0.231903 0.0568179
-0.167709 0.0546044 0.142858
-0.119112 -0.113763 0.19671
-0.0780475 -0.229501 0.20443
-0.0477046 -0.266661 0.171192
-0.100587 -0.0567187 -0.0634358
-0.0822979 0.0153753 -0.124364
-0.0435738 0.113678 -0.184562
0.0119331 0.194982 -0.221134
0.0735779 0.220242 -0.210351
0.127623 0.16479 -0.145038
0.16196 0.0378128 -0.0389078
0.167745 -0.109805 0.0725129
0.140427 -0.21214 0.150668
0.0836586 -0.218081 0.16898
0.0102372 -0.111878 0.126235
-0.0624789 0.0760898 0.047892
-0.117689 0.282033 -0.0255376
-0.144456 0.435436 -0.0553482
-0.140878 0.483799 -0.0260859
-0.112826 0.409613 0.0568729
-0.0700174 0.238075 0.167249
-0.0256223 0.0406897 0.262016
0.0098595 -0.137776 0.312398
0.0309827 -0.254195 0.306479
0.0390866 -0.286138 0.251594
-0.180565 -0.0403963 -0.141575
-0.162967 0.0200945 -0.202047
-0.116463 0.0991446 -0.243539
-0.0470015 0.158876 -0.248536
0.0321175 0.166688 -0.200884
0.104262 0.103621 -0.101284
0.155337 -0.0155025 0.0248921
0.175771 -0.140406 0.139729
0.162896 -0.210167 0.208369
0.122998 -0.182078 0.211002
0.069751 -0.0485526 0.154352
0.0198196 0.153694 0.0698193
-0.0115849 0.358296 -2.14321e-05
-0.0161823 0.49656 -0.0186071
0.00415696 0.521608 0.0255333
0.040698 0.422842 0.122991
0.0825799 0.231307 0.24323
0.116898 0.0223158 0.339356
0.134498 -0.158036 0.38415
0.133163 -0.269411 0.367933
0.118405 -0.293829 0.299395
-0.232965 -0.0219545 -0.195259
-0.215019 0.0201588 -0.25522
-0.161264 0.0705387 -0.285597
-0.0796936 0.10023 -0.273121
0.0146491 0.0850039 -0.206968
0.103439 0.0132308 -0.0919084
0.171155 -0.0955495 0.0408093
0.207627 -0.193089 0.153609
0.21119 -0.225766 0.215505
0.189649 -0.161438 0.211752
0.156488 -0.00138222 0.152808
0.127043 0.212173 0.0713456
0.114666 0.412168 0.00831028
0.125468 0.533892 -0.00345735
0.154994 0.537573 0.044803
0.192947 0.419847 0.14216
0.22825 0.216626 0.257843
0.248927 0.00445638 0.346701
0.247522 -0.170727 0.384698
0.224554 -0.272987 0.364468
0.188735 -0.289141 0.295126
-0.233058 -0.00473968 -0.212228
-0.210631 0.013997 -0.273002
-0.149623 0.0304385 -0.303536
-0.0595153 0.0254654 -0.29205
0.0439753 -0.0155222 -0.229979
0.142414 -0.095804 -0.122282
0.220078 -0.192485 0.00145619
0.26695 -0.260367 0.107057
0.281889 -0.254784 0.167157
0.27337 -0.155086 0.16942
0.254182 0.0286831 0.123027
0.238335 0.25003 0.0564166
0.237346 0.442994 0.00474919
0.255755 0.548446 -0.00442876
0.287692 0.534472 0.0363746
0.32238 0.404588 0.117424
0.348986 0.198217 0.212202
0.356546 -0.00930147 0.28372
0.339082 -0.173604 0.312442
0.298854 -0.264161 0.293357
0.246354 -0.272275 0.235556
-0.174622 0.00329955 -0.189884
-0.143618 -0.0029186 -0.251637
-0.0761904 -0.0201516 -0.292442
0.0166461 -0.0568255 -0.29987
0.119777 -0.119782 -0.263013
0.216751 -0.204428 -0.182623
0.293595 -0.286949 -0.0807431
0.341071 -0.325526 0.0145026
0.358424 -0.285116 0.0789164
0.354143 -0.156034 0.0996729
0.340116 0.044264 0.0801474
0.329317 0.266994 0.039702
0.331578 0.449257 0.00417867
0.350417 0.538697 -0.00537122
0.379552 0.511336 0.0185711
0.408539 0.376578 0.0698857
0.42692 0.175635 0.130032
0.42468 -0.0197418 0.174452
0.396859 -0.168171 0.189817
0.346257 -0.244843 0.174455
0.283655 -0.245355 0.136566
-0.0661199 -0.00297872 -0.132013
-0.0243595 -0.0314349 -0.193509
0.0460128 -0.0755987 -0.25054
0.13373 -0.135393 -0.288281
0.22558 -0.211739 -0.291298
0.308196 -0.294446 -0.251627
0.370702 -0.360041 -0.178231
0.406771 -0.37241 -0.0918163
0.415654 -0.305015 -0.0144956
0.405461 -0.157333 0.0378349
0.387209 0.048171 0.0588812
0.373169 0.263014 0.0551415
0.371716 0.429416 0.0404976
0.385726 0.502648 0.0286035
0.409203 0.466225 0.0281496
0.432499 0.333918 0.0384979
0.445863 0.146732 0.0514857
0.439751 -0.0294593 0.0583586
0.409455 -0.157344 0.054097
0.357389 -0.218175 0.0401383
0.293167 -0.211413 0.0234321
0.0659849 -0.0251185 -0.052264
0.117292 -0.0704458 -0.110883
0.185326 -0.130978 -0.184378
0.26007 -0.202002 -0.254555
0.330805 -0.280389 -0.300178
0.388359 -0.353678 -0.30391
0.42559 -0.40027 -0.258271
0.43963 -0.389923 -0.175713
0.43085 -0.304935 -0.0778533
0.40646 -0.150862 0.0148832
0.376805 0.0476492 0.0846371
0.353709 0.24507 0.123412
0.344362 0.390518 0.132207
0.35117 0.447322 0.117095
0.368688 0.405645 0.0885597
0.388485 0.281871 0.0519742
0.40131 0.11488 0.0108133
0.397924 -0.0371118 -0.026622
0.373322 -0.141872 -0.0570479
0.328727 -0.186473 -0.0756218
0.271628 -0.173464 -0.0766994
0.180977 -0.0593883 0.0264506
0.236715 -0.113974 -0.0263406
0.29623 -0.178854 -0.109843
0.351976 -0.248242 -0.202034
0.39642 -0.3176 -0.27859
0.42412 -0.374584 -0.315467
0.432274 -0.401351 -0.291754
0.421578 -0.37372 -0.211535
0.39342 -0.281482 -0.0954634
0.353865 -0.133461 0.0315303
0.312642 0.0463087 0.142491
0.280889 0.217601 0.217416
0.264627 0.337746 0.246501
0.265642 0.378122 0.229476
0.27895 0.334389 0.177314
0.297315 0.223854 0.10066
0.312234 0.081574 0.0133236
0.315046 -0.0431642 -0.0633109
0.300422 -0.124021 -0.119069
0.268439 -0.152948 -0.146652
0.22404 -0.134977 -0.140873
0.257768 -0.100188 0.0896538
0.311679 -0.156113 0.0476133
0.357957 -0.214628 -0.0350092
0.391953 -0.271179 -0.135538
0.408691 -0.322047 -0.226923
0.406663 -0.357631 -0.282345
0.386612 -0.364911 -0.272366
0.352153 -0.32638 -0.195825
0.307056 -0.236718 -0.0705397
0.256181 -0.105717 0.0762112
0.208336 0.0457247 0.212093
0.173355 0.184491 0.309585
0.155689 0.276869 0.351736
0.155888 0.301817 0.333611
0.168947 0.259085 0.265738
0.188327 0.165236 0.162865
0.206561 0.0501624 0.0449492
0.215973 -0.0465081 -0.0589447
0.211512 -0.104579 -0.134463
0.19284 -0.11985 -0.171374
0.162657 -0.0989901 -0.165622
0.282848 -0.136083 0.125021
0.328436 -0.186983 0.0961044
0.359243 -0.232278 0.0245258
0.372778 -0.269647 -0.0699054
0.36677 -0.298054 -0.160943
0.342719 -0.311522 -0.220093
0.30369 -0.30248 -0.216794
0.254981 -0.259872 -0.146748
0.201012 -0.180575 -0.0250977
0.147012 -0.0738586 0.12258
0.0998721 0.0440321 0.26283
0.0675375 0.147894 0.365983
0.0527678 0.21286 0.412356
0.0548212 0.224545 0.394305
0.0686112 0.185386 0.321723
0.0883932 0.109918 0.210541
0.107873 0.0221206 0.0826316
0.121322 -0.0479171 -0.0317324
0.124449 -0.08581 -0.115479
0.116752 -0.0904432 -0.157851
0.0995855 -0.0688232 -0.155997
0.256397 -0.156418 0.127684
0.289006 -0.198622 0.111497
0.304847 -0.229119 0.0577304
0.303277 -0.247957 -0.0181731
0.284003 -0.256605 -0.0943809
0.249821 -0.252309 -0.144832
0.20459 -0.23238 -0.143407
0.153908 -0.19104 -0.0852566
0.102031 -0.126793 0.0177721
0.0535546 -0.046647 0.1451
0.0144455 0.0378783 0.267295
-0.0101535 0.109122 0.358086
-0.0190389 0.150092 0.399487
-0.0139242 0.151715 0.383505
0.000348283 0.117848 0.31844
0.0190245 0.0603978 0.218508
0.0373308 -0.00260862 0.103302
0.0513933 -0.0497213 -0.00113985
0.0578826 -0.07162 -0.0785726
0.0568523 -0.0691152 -0.119484
0.0487803 -0.0486848 -0.122125
0.0779712 -0.170384 0.0234136
0.107887 -0.157145 -0.0188134
0.136174 -0.0958591 -0.0856031
0.160393 0.00192994 -0.164126
0.177927 0.106151 -0.230687
0.189086 0.188616 -0.269365
0.196003 0.215815 -0.26748
0.20033 0.180214 -0.229853
0.204747 0.091717 -0.171622
0.210324 -0.0319827 -0.112483
0.214562 -0.161276 -0.0704566
0.212983 -0.270368 -0.051401
0.201329 -0.340724 -0.0487109
0.1771 -0.361705 -0.0469603
0.138382 -0.333402 -0.0330515
0.0872075 -0.262718 0.00169246
0.0285614 -0.165754 0.0549708
-0.0303928 -0.0632968 0.10896
-0.0813357 0.0264815 0.146064
-0.11757 0.0882179 0.156866
-0.133346 0.113881 0.137798
0.0628349 -0.193778 0.0564992
0.0824843 -0.179157 0.00669925
0.102484 -0.109518 -0.0817443
0.122489 -0.000797771 -0.189375
0.142641 0.110588 -0.28406
0.163641 0.192506 -0.340234
0.186235 0.208729 -0.336869
0.209639 0.155223 -0.280713
0.232247 0.0478982 -0.193984
0.250173 -0.0906804 -0.104981
0.257509 -0.225529 -0.0407367
0.248364 -0.329565 -0.0115405
0.219906 -0.386379 -0.00990291
0.172166 -0.389116 -0.016056
0.106872 -0.343354 -0.0109368
0.0305946 -0.260122 0.0181475
-0.0481168 -0.156496 0.0706626
-0.119161 -0.0517832 0.125856
-0.17274 0.0365169 0.164516
-0.20282 0.0943449 0.174927
-0.206043 0.115398 0.152889
0.032111 -0.201595 0.0992821
0.03478 -0.184015 0.0473808
0.0400936 -0.109105 -0.0573344
0.0508072 0.00320647 -0.190121
0.0701913 0.111609 -0.310682
0.1001 0.18169 -0.38253
0.139465 0.176898 -0.376011
0.183505 0.0997593 -0.299858
0.224602 -0.0256875 -0.184728
0.25313 -0.170643 -0.0675391
0.260385 -0.297068 0.0153784
0.239809 -0.379635 0.0491652
0.191024 -0.407831 0.0422904
0.118801 -0.382444 0.0192057
0.0290281 -0.316178 0.00540823
-0.0667047 -0.225288 0.018432
-0.156581 -0.12622 0.0601761
-0.228916 -0.033333 0.109448
-0.274295 0.0398435 0.146795
-0.289272 0.0834077 0.158524
-0.274337 0.0955596 0.13929
-0.000956423 -0.196554 0.145669
-0.0156422 -0.173277 0.0942422
-0.0256084 -0.0942687 -0.0223415
-0.0248471 0.0162485 -0.174409
-0.0076354 0.113917 -0.315795
0.0281749 0.164042 -0.399438
0.0793987 0.132153 -0.388084
0.138353 0.0290231 -0.293099
0.191007 -0.111739 -0.154201
0.223264 -0.25468 -0.016118
0.224727 -0.36055 0.0767234
0.189557 -0.408555 0.106071
0.120728 -0.397246 0.0822752
0.0277069 -0.337845 0.0354468
-0.0782247 -0.251871 -0.00313516
-0.182335 -0.16025 -0.0111189
-0.27146 -0.0769581 0.016152
-0.333943 -0.00852118 0.0591163
-0.362709 0.0379753 0.0959781
-0.357436 0.0594525 0.111876
-0.323228 0.0602611 0.100769
-0.0186875 -0.181128 0.182243
-0.0438277 -0.149159 0.131046
-0.0636622 -0.0656279 0.00647155
-0.0696032 0.0405407 -0.158193
-0.0553772 0.123233 -0.311353
-0.0180846 0.149098 -0.400131
0.0363873 0.0877345 -0.381951
0.0987237 -0.0408111 -0.271904
0.151199 -0.193027 -0.117632
0.176629 -0.326575 0.0298272
0.164823 -0.402747 0.120877
0.112245 -0.407567 0.136294
0.0256224 -0.350995 0.0896615
-0.0814861 -0.256469 0.0172344
-0.193515 -0.155124 -0.0446734
-0.294134 -0.0710546 -0.0712152
-0.370609 -0.0143901 -0.0555177
-0.413875 0.0188932 -0.0149194
-0.420122 0.0298909 0.0259563
-0.393097 0.0240569 0.0491914
-0.342192 0.0130935 0.049617
-0.0136239 -0.159445 0.20309
-0.0399136 -0.116092 0.150576
-0.0612823 -0.0263709 0.0213022
-0.0688118 0.0759446 -0.148261
-0.0565224 0.143422 -0.304011
-0.0225824 0.144894 -0.391037
0.0255702 0.0552889 -0.365991
0.0785661 -0.0958788 -0.247777
0.117381 -0.255439 -0.0896369
0.124329 -0.374333 0.0534826