# vtk DataFile Version 2.0
Func
ASCII
DATASET RECTILINEAR_GRID
DIMENSIONS 21 21 21
X_COORDINATES 21 double
-4.7619
-4.28571
-3.80952
-3.33333
-2.85714
-2.38095
-1.90476
-1.42857
-0.952381
-0.47619
0
0.47619
0.952381
1.42857
1.90476
2.38095
2.85714
3.33333
3.80952
4.28571
4.7619
Y_COORDINATES 21 double
-4.7619
-4.28571
-3.80952
-3.33333
-2.85714
-2.38095
-1.90476
-1.42857
-0.952381
-0.47619
0
0.47619
0.952381
1.42857
1.90476
2.38095
2.85714
3.33333
3.80952
4.28571
4.7619
Z_COORDINATES 21 double
-4.7619
-4.28571
-3.80952
-3.33333
-2.85714
-2.38095
-1.90476
-1.42857
-0.952381
-0.47619
0
0.47619
0.952381
1.42857
1.90476
2.38095
2.85714
3.33333
3.80952
4.28571
4.7619
POINT_DATA 9261
SCALARS data double 3
LOOKUP_TABLE default
0.00770008 -0.0435369 -0.0026505
0.0229651 -0.0578684 -0.00259302
0.0393737 -0.0691748 -0.0088434
0.0582597 -0.0723835 -0.0245191
0.0782645 -0.0680852 -0.0489069
0.0982743 -0.0566575 -0.0812899
0.116536 -0.0433922 -0.117905
0.130833 -0.034458 -0.155043
0.1381 -0.0330433 -0.186953
0.13702 -0.0402519 -0.207527
0.127326 -0.0533981 -0.214759
0.110469 -0.0671577 -0.208712
0.0890876 -0.0756114 -0.19275
0.0663344 -0.0753783 -0.173582
0.0451099 -0.0671232 -0.155855
0.0281441 -0.0541196 -0.143558
0.0158747 -0.0406187 -0.138022
0.00799046 -0.0313793 -0.133969
0.00336442 -0.0254142 -0.123991
0.00132404 -0.0222663 -0.105215
0.000120212 -0.0196738 -0.0779051
0.0101891 -0.0614919 0.0424667
0.0278023 -0.0788333 0.0577002
0.0469638 -0.0903639 0.0627583
0.0694251 -0.0895687 0.0523643
0.0944549 -0.0763799 0.0255238
0.121235 -0.0513437 -0.0172112
0.147753 -0.0213964 -0.0698253
0.171582 0.0037299 -0.127707
0.188022 0.0177852 -0.183471
0.19405 0.0176223 -0.227754
0.188453 0.00559869 -0.256511
0.172573 -0.0118776 -0.268134
0.149455 -0.0267772 -0.265154
0.122959 -0.0337015 -0.254556
0.0971605 -0.0318784 -0.24113
0.0755428 -0.0240126 -0.230306
0.0587609 -0.0148876 -0.224044
0.0464065 -0.0103192 -0.215575
0.0373209 -0.00928326 -0.197654
0.0306576 -0.0107541 -0.167448
0.0244325 -0.012182 -0.125526
0.000571952 -0.0827996 0.101282
0.0171344 -0.104951 0.137513
0.0361806 -0.118141 0.160099
0.0601838 -0.114254 0.161447
0.0895522 -0.0913386 0.138323
0.123722 -0.0498073 0.0899075
0.160605 0.00199079 0.0245374
0.197242 0.0500039 -0.0531668
0.227438 0.0835961 -0.13424
0.245843 0.0964268 -0.206255
0.249743 0.0893868 -0.262484
0.239878 0.0695654 -0.298732
0.219195 0.0473168 -0.315611
0.19214 0.030767 -0.31935
0.163604 0.0231448 -0.314801
0.137977 0.0231107 -0.308128
0.116223 0.0256378 -0.302625
0.0979382 0.0240081 -0.29067
0.0823347 0.0189418 -0.26584
0.0686262 0.0116615 -0.225698
0.0549894 0.0045692 -0.171226
-0.0282476 -0.100074 0.155915
-0.0166845 -0.128647 0.213607
-0.000668876 -0.145893 0.255943
0.023542 -0.141443 0.273839
0.0574677 -0.110485 0.261264
0.100429 -0.052989 0.215237
0.15002 0.0220544 0.145421
0.202674 0.09628 0.0553719
0.250442 0.153817 -0.0452407
0.28532 0.184273 -0.14167
0.302755 0.186196 -0.224347
0.302442 0.166798 -0.285941
0.286948 0.13851 -0.324339
0.260999 0.112263 -0.34427
0.230353 0.0939396 -0.350415
0.20036 0.083977 -0.349857
0.172553 0.0776936 -0.347057
0.14693 0.0677923 -0.334726
0.123316 0.0550431 -0.307287
0.10151 0.0408156 -0.262536
0.0803453 0.0268996 -0.201197
-0.0784655 -0.10724 0.188518
-0.0753598 -0.143381 0.261822
-0.0644917 -0.167628 0.320989
-0.0408563 -0.166827 0.356149
-0.00213968 -0.13222 0.359183
0.0506458 -0.0624884 0.324913
0.114162 0.0335079 0.262602
0.183993 0.133787 0.173574
0.250281 0.216909 0.066212
0.302628 0.267896 -0.0435824
0.334583 0.282192 -0.14406
0.344578 0.266471 -0.224831
0.334776 0.23468 -0.28072
0.310083 0.200217 -0.314519
0.276889 0.1714 -0.330483
0.241604 0.15069 -0.336715
0.206778 0.134015 -0.339065
0.173388 0.114232 -0.331091
0.14213 0.0926997 -0.307901
0.113701 0.0709927 -0.266298
0.0876178 0.0500429 -0.206416
-0.145383 -0.101043 0.181906
-0.152836 -0.145003 0.259386
-0.148134 -0.179101 0.327213
-0.125363 -0.18685 0.375679
-0.0818191 -0.154521 0.396074
-0.0190561 -0.0786555 0.38267
0.0582309 0.0330648 0.341736
0.144463 0.156007 0.270533
0.227838 0.263414 0.174199
0.295956 0.335646 0.0679389
0.340534 0.364522 -0.0358509
0.358651 0.355525 -0.124447
0.352262 0.323372 -0.189692
0.326649 0.283272 -0.232153
0.288959 0.245613 -0.255213
0.246936 0.214512 -0.267463
0.204467 0.18708 -0.276085
0.163975 0.156718 -0.276413
0.127195 0.125996 -0.263163
0.095706 0.0968683 -0.232168
0.0693212 0.0692084 -0.18279
-0.209962 -0.0786712 0.135323
-0.226264 -0.129362 0.202096
-0.225889 -0.17513 0.265853
-0.202544 -0.19569 0.318839
-0.153906 -0.171982 0.353908
-0.0821477 -0.0975152 0.366204
0.00655241 0.0223772 0.356903
0.105242 0.161545 0.318157
0.200418 0.288857 0.250341
0.278414 0.380539 0.165604
0.329591 0.42468 0.075159
0.349997 0.424987 -0.00720519
0.341787 0.395989 -0.071068
0.310953 0.353679 -0.115
0.265663 0.309759 -0.141247
0.215247 0.269441 -0.158398
0.165086 0.231125 -0.174502
0.11912 0.189712 -0.186499
0.0799763 0.149299 -0.187639
0.0498045 0.112775 -0.172525
0.0280653 0.0794596 -0.139438
-0.252119 -0.0408175 0.0620843
-0.272695 -0.0956626 0.105084
-0.273291 -0.153429 0.151798
-0.2478 -0.189689 0.198628
-0.194826 -0.180269 0.242347
-0.11714 -0.115112 0.279551
-0.0221287 0.00392146 0.305535
0.0821515 0.150761 0.307052
0.181226 0.291369 0.27872
0.261082 0.398881 0.227487
0.311511 0.457907 0.161924
0.3281 0.46981 0.0958033
0.313488 0.447749 0.0411912
0.274498 0.407142 0.00135508
0.220364 0.359861 -0.0245754
0.161849 0.311804 -0.0447603
0.105555 0.262671 -0.0676672
0.0566121 0.209537 -0.0912949
0.0181662 0.158989 -0.106961
-0.00745916 0.11516 -0.108074
-0.0217815 0.0776063 -0.0919196
-0.257401 0.00958711 -0.0166315
-0.276539 -0.0456439 -0.00533119
-0.274633 -0.113459 0.0148388
-0.246391 -0.166003 0.0462547
-0.191574 -0.175068 0.0909537
-0.113305 -0.126592 0.147208
-0.0194075 -0.0177686 0.205042
0.0816727 0.127219 0.246116
0.17565 0.273223 0.259024
0.249112 0.391755 0.244079
0.2922 0.464516 0.206497
0.300711 0.489994 0.159476
0.277763 0.478651 0.116448
0.230763 0.4437 0.0825727
0.169726 0.395835 0.0585879
0.106257 0.341003 0.0371099
0.0474595 0.280504 0.00955543
-0.00106147 0.214535 -0.0224707
-0.0360582 0.152806 -0.0486266
-0.0555355 0.101581 -0.0614725
-0.0623763 0.0616593 -0.0575374
-0.224529 0.0668551 -0.0813273
-0.237681 0.0155827 -0.103125
-0.23121 -0.0585513 -0.114163
-0.20114 -0.125878 -0.105066
-0.148252 -0.155643 -0.0677813
-0.075596 -0.129621 -0.0022384
0.00956323 -0.0392136 0.0780483
0.0992859 0.0950834 0.150709
0.180701 0.23895 0.198782
0.241761 0.363811 0.215386
0.273741 0.449135 0.202191
0.273165 0.489986 0.171474
0.243359 0.492778 0.1378
0.191792 0.466885 0.108312
0.128678 0.420558 0.0856444
0.0655872 0.359323 0.0635907
0.00921794 0.286424 0.0338422
-0.0352638 0.206207 -0.0015878
-0.0649766 0.132235 -0.0315735
-0.0785989 0.0736559 -0.0484344
-0.0801943 0.0330961 -0.0483302
-0.16603 0.124027 -0.119233
-0.171778 0.0804451 -0.16942
-0.161552 0.00422045 -0.210725
-0.132669 -0.0752377 -0.22694
-0.0863763 -0.12644 -0.204112
-0.0250786 -0.127003 -0.14022
0.0454516 -0.0616783 -0.049805
0.118639 0.0544277 0.0423095
0.183942 0.189807 0.114572
0.231091 0.317239 0.153487
0.25287 0.414618 0.157407
0.246619 0.473012 0.137442
0.215287 0.49343 0.108918
0.165664 0.479832 0.0807959
0.107368 0.436945 0.0577163
0.0510724 0.369551 0.0348509
0.00223121 0.283276 0.00451457
-0.0351995 0.187623 -0.0300582
-0.0590361 0.100727 -0.0577495
-0.0687227 0.0351495 -0.0710483
-0.0691379 -0.00446584 -0.0661679
-0.102383 0.174562 -0.127786
-0.10318 0.141032 -0.197886
-0.0928023 0.066418 -0.26437
-0.0695054 -0.0222401 -0.305615
-0.0342466 -0.0944063 -0.302461
0.0118696 -0.123681 -0.25018
0.0650935 -0.0877952 -0.161688
0.120781 0.00484354 -0.0624049
0.171035 0.127351 0.0227802
0.207357 0.255002 0.0751795
0.223897 0.364643 0.0900168
0.218429 0.442797 0.07677
0.192852 0.483928 0.0507412
0.152535 0.485324 0.0219507
0.10578 0.447501 -0.00317558
0.0617783 0.374348 -0.0280483
0.0242706 0.274283 -0.0593035
-0.00437124 0.162749 -0.0916682
-0.0227821 0.0630341 -0.114149
-0.030996 -0.00868081 -0.119333
-0.0341113 -0.0459688 -0.103857
-0.0510953 0.212944 -0.110761
-0.05178 0.189986 -0.191217
-0.0460097 0.119478 -0.275929
-0.0323844 0.0244726 -0.34008
-0.01083 -0.0667113 -0.360178
0.0193829 -0.124163 -0.327403
0.0565315 -0.118909 -0.250518
0.0979625 -0.052105 -0.153608
0.138073 0.0553737 -0.0635174
0.16971 0.182038 -0.00236627
0.187804 0.304089 0.0217637
0.189883 0.403234 0.0157402
0.176273 0.466752 -0.0066134
0.15051 0.484634 -0.035671
0.119196 0.453057 -0.0637957
0.089958 0.375003 -0.0929607
0.0648705 0.261913 -0.128145
0.0448309 0.135512 -0.161064
0.0304789 0.0243492 -0.180022
0.0215373 -0.0519376 -0.17709
0.0132885 -0.0858358 -0.149543
-0.0167791 0.23587 -0.0733011
-0.0210127 0.222462 -0.155829
-0.0231549 0.157085 -0.252276
-0.0210199 0.0582605 -0.336593
-0.0129682 -0.0486436 -0.382009
0.00379223 -0.13114 -0.374447
0.0291454 -0.154657 -0.315974
0.0620969 -0.113305 -0.227407
0.0985034 -0.0211969 -0.136179
0.13186 0.103801 -0.0661458
0.157127 0.237588 -0.0292437
0.170909 0.357189 -0.0227549
0.171758 0.442767 -0.0364168
0.16138 0.477157 -0.0629436
0.144755 0.452642 -0.0942545
0.128386 0.371423 -0.130845
0.113171 0.247887 -0.175181
0.0990045 0.109658 -0.214654
0.0861711 -0.00995476 -0.23565
0.0745205 -0.0886814 -0.22896
0.0603708 -0.11844 -0.192239
0.00526223 0.240394 -0.021323
-0.00388 0.23384 -0.0991158
-0.0141548 0.173723 -0.201529
-0.0219959 0.0738399 -0.30322
-0.0240867 -0.0434184 -0.374348
-0.0159133 -0.144928 -0.394557
0.00324083 -0.192499 -0.358153
0.0335051 -0.173905 -0.281185
0.0712612 -0.0963577 -0.190217
0.109947 0.0260052 -0.109521
0.144078 0.169182 -0.055132
0.16913 0.306173 -0.0297626
0.182174 0.410916 -0.0285807
0.183531 0.460109 -0.0483286
0.177045 0.443106 -0.0814117
0.168696 0.361681 -0.126914
0.158787 0.23281 -0.184354
0.146834 0.0886575 -0.236346
0.133164 -0.0344721 -0.266003
0.117791 -0.112496 -0.261556
0.0982239 -0.138021 -0.221514
0.0298995 0.225329 0.0426805
0.0188381 0.223121 -0.025553
0.00435345 0.16797 -0.129735
-0.00867585 0.0703569 -0.246094
-0.0155516 -0.0507561 -0.342753
-0.0104849 -0.163126 -0.392411
0.00755 -0.227497 -0.380295
0.0389584 -0.227392 -0.316753
0.080157 -0.163311 -0.226337
0.124023 -0.0457518 -0.132943
0.164543 0.102038 -0.0567612
0.196309 0.250396 -0.00687281
0.215453 0.368787 0.0146904
0.221538 0.429597 0.0058675
0.217979 0.420468 -0.0271042
0.210575 0.343103 -0.0823032
0.199814 0.215718 -0.155942
0.185423 0.0733071 -0.225064
0.168226 -0.0472059 -0.268915
0.148345 -0.120998 -0.272862
0.124018 -0.141887 -0.234666
0.0677385 0.196103 0.113726
0.0603183 0.195599 0.0577588
0.0477779 0.145495 -0.0452032
0.0359506 0.0527609 -0.173021
0.0304028 -0.0658274 -0.2925
0.0374258 -0.181426 -0.371147
0.0579342 -0.255473 -0.384141
0.0922016 -0.269035 -0.335447
0.136158 -0.217443 -0.246789
0.181984 -0.10762 -0.141265
0.223374 0.0385936 -0.0427789
0.25468 0.190532 0.0330869
0.271838 0.315371 0.0769289
0.274464 0.383318 0.0809313
0.266217 0.381704 0.0492639
0.253025 0.312014 -0.015412
0.236341 0.192995 -0.105759
0.215951 0.0600238 -0.192776
0.193083 -0.051694 -0.253031
0.168118 -0.117486 -0.268157
0.139819 -0.133256 -0.235492
0.112283 0.158363 0.176194
0.113061 0.157934 0.132679
0.107335 0.113602 0.0349617
0.101493 0.0290477 -0.0953576
0.101445 -0.0814074 -0.226592
0.112319 -0.192682 -0.325526
0.135009 -0.269767 -0.359815
0.16982 -0.292355 -0.326709
0.212246 -0.252537 -0.243952
0.254295 -0.153983 -0.133798
0.290145 -0.0164283 -0.0217303
0.31474 0.130305 0.0719673
0.324481 0.253487 0.132149
0.319366 0.32335 0.146716
0.303459 0.328005 0.117466
0.282702 0.268852 0.0479728
0.259123 0.164011 -0.051381
0.231954 0.0466816 -0.148629
0.20385 -0.050889 -0.219296
0.174538 -0.105778 -0.24426
0.143438 -0.116237 -0.219982
0.150239 0.11678 0.21349
0.16211 0.115058 0.182988
0.167142 0.0771069 0.096165
0.171014 0.00379157 -0.0274407
0.178039 -0.0928198 -0.157504
0.192286 -0.193369 -0.263794
0.21404 -0.267225 -0.310723
0.243368 -0.294804 -0.291879
0.277374 -0.266085 -0.219488
0.30892 -0.182304 -0.114246
0.333837 -0.0604038 -0.000914672
0.348619 0.0724129 0.0984503
0.350459 0.185783 0.165838
0.339492 0.252123 0.187068
0.319378 0.261179 0.161931
0.294416 0.214555 0.0945703
0.266315 0.12845 -0.00373782
0.234751 0.0323081 -0.100543
0.202921 -0.0467621 -0.174889
0.170887 -0.0889964 -0.205982
0.138154 -0.0943631 -0.190143
0.167532 0.0758464 0.221372
0.188104 0.0721646 0.203021
0.203026 0.0408711 0.13236
0.215292 -0.0187292 0.0245088
0.227669 -0.0981499 -0.0937079
0.242943 -0.183279 -0.194829
0.260893 -0.249151 -0.245413
0.281238 -0.277899 -0.237701
0.302971 -0.258814 -0.1797
0.321356 -0.19162 -0.0887025
0.334095 -0.0900643 0.013221
0.339538 0.0226116 0.105365
0.335757 0.120161 0.170069
0.322813 0.178741 0.193219
0.303128 0.190156 0.173737
0.278856 0.156163 0.115204
0.251267 0.0904964 0.0285245
0.219829 0.0172778 -0.0582099
0.187826 -0.041736 -0.126978
0.156199 -0.0710011 -0.158648
0.124435 -0.0720721 -0.149701
0.156877 0.0393686 0.195791
0.181444 0.0340167 0.187578
0.202037 0.00996504 0.136777
0.218848 -0.0355261 0.0529998
0.232644 -0.096793 -0.0430388
0.245533 -0.164203 -0.127023
0.256741 -0.218716 -0.172511
0.266837 -0.245301 -0.171722
0.275709 -0.233962 -0.130318
0.281477 -0.183555 -0.0607156
0.284131 -0.104509 0.0195206
0.283401 -0.0152883 0.0936379
0.27817 0.063064 0.147053
0.267885 0.111788 0.167824
0.253141 0.1243 0.154499
0.234543 0.102054 0.110491
0.212394 0.0559068 0.0442111
0.185942 0.00429231 -0.0237188
0.158082 -0.0360506 -0.0786295
0.130247 -0.0536833 -0.105147
0.101829 -0.0519787 -0.101901
-0.0193757 -0.0814573 -0.00794072
-0.00560352 -0.105565 -0.00758303
0.0116286 -0.123107 -0.0135011
0.0322895 -0.128783 -0.0301349
0.0543088 -0.123594 -0.0573569
0.0758786 -0.108768 -0.0945479
0.095126 -0.0924086 -0.137216
0.109906 -0.0819886 -0.180417
0.117267 -0.0806032 -0.216638
0.116332 -0.0879586 -0.237628
0.106783 -0.0995189 -0.240717
0.0899752 -0.108305 -0.226422
0.0684886 -0.107724 -0.200088
0.0453022 -0.0953787 -0.171649
0.0231308 -0.0743242 -0.148073
0.00489885 -0.0503239 -0.135057
-0.0088463 -0.0298118 -0.134073
-0.0180407 -0.0186089 -0.137156
-0.0232853 -0.0147521 -0.13321
-0.0246052 -0.0155153 -0.117436
-0.0232034 -0.0171559 -0.0893293
-0.0240866 -0.106102 0.0402636
-0.00705357 -0.135059 0.0562418
0.0147062 -0.153961 0.0612972
0.0415301 -0.156227 0.0487641
0.0716 -0.142105 0.0172535
0.102964 -0.112922 -0.032792
0.133111 -0.0785328 -0.0942407
0.159506 -0.0504933 -0.161106
0.177481 -0.0355235 -0.224085
0.184335 -0.0353797 -0.271136
0.178826 -0.0457743 -0.297213
0.162351 -0.0583874 -0.30094
0.138137 -0.0642106 -0.286863
0.110046 -0.0587404 -0.265481
0.0820904 -0.0435119 -0.244272
0.0580027 -0.0240033 -0.230905
0.0385029 -0.007457 -0.227921
0.0235264 -0.000854789 -0.22564
0.0124394 -0.0020562 -0.212812
0.00523964 -0.00741044 -0.184514
0.000694185 -0.0128719 -0.140396
-0.0426481 -0.130729 0.104678
-0.0256266 -0.165617 0.142183
-0.00175926 -0.187014 0.164412
0.0301803 -0.186635 0.162401
0.0690529 -0.162641 0.132916
0.112629 -0.116093 0.0749984
0.157806 -0.0581642 -0.00167462
0.200993 -0.005434 -0.0910451
0.235749 0.0301774 -0.182288
0.256803 0.0435637 -0.260033
0.26133 0.0374997 -0.316087
0.250336 0.0212739 -0.346031
0.227242 0.00668332 -0.352177
0.196998 0.00128846 -0.344188
0.164544 0.00641359 -0.329834
0.134712 0.0177478 -0.318057
0.10843 0.0276055 -0.313313
0.085505 0.0280537 -0.305408
0.0655795 0.0210843 -0.283968
0.0489483 0.0105919 -0.244429
0.034818 0.000419131 -0.186774
-0.0827177 -0.146351 0.164748
-0.07014 -0.187737 0.223522
-0.0472142 -0.213684 0.264553
-0.011138 -0.213123 0.277735
0.0375447 -0.181055 0.257736
0.0958172 -0.117973 0.201106
0.159517 -0.0353665 0.11908
0.223855 0.0452362 0.0163368
0.280244 0.10576 -0.0958549
0.320343 0.136667 -0.199985
0.339478 0.13825 -0.284558
0.337769 0.120199 -0.341454
0.318597 0.0969174 -0.369714
0.287646 0.0792258 -0.377188
0.251066 0.0716296 -0.371546
0.214774 0.0716508 -0.363199
0.180222 0.0718775 -0.358467
0.147534 0.0638223 -0.348186
0.116885 0.0497935 -0.322846
0.0893468 0.0336702 -0.278186
0.0652913 0.0184977 -0.213759
-0.146388 -0.146362 0.200481
-0.142694 -0.194387 0.273369
-0.123629 -0.227507 0.329368
-0.0847105 -0.230876 0.358309
-0.026164 -0.195175 0.353706
0.0478957 -0.119512 0.309538
0.131565 -0.0148608 0.236507
0.218417 0.0930798 0.136536
0.29754 0.179792 0.0188565
0.357792 0.230559 -0.0983885
0.392665 0.242429 -0.201306
0.401097 0.224874 -0.278177
0.386467 0.194412 -0.324299
0.355051 0.164865 -0.345115
0.313923 0.143737 -0.34777
0.270287 0.13079 -0.344112
0.226601 0.119199 -0.342514
0.183967 0.100725 -0.335522
0.143377 0.0786298 -0.314564
0.107023 0.0566864 -0.274061
0.0764214 0.0368536 -0.212694
-0.226261 -0.128952 0.191583
-0.234523 -0.183433 0.265349
-0.221535 -0.226549 0.327073
-0.181455 -0.2388 0.367645
-0.114382 -0.205357 0.38128
-0.0257758 -0.12332 0.361145
0.0763661 -0.00204179 0.314414
0.183696 0.129633 0.237828
0.283101 0.241068 0.136124
0.361035 0.312126 0.0257905
0.409279 0.336133 -0.0788896
0.42543 0.321707 -0.163441
0.413096 0.28675 -0.219347
0.379273 0.247444 -0.249064
0.332114 0.213943 -0.25848
0.28027 0.187838 -0.260011
0.227663 0.163582 -0.263824
0.176814 0.133689 -0.265156
0.129852 0.102927 -0.255547
0.0898484 0.0751225 -0.228106
0.0587853 0.0509286 -0.180457
-0.299394 -0.0932666 0.137004
-0.31821 -0.153191 0.195281
-0.310393 -0.208186 0.24917
-0.269422 -0.233582 0.292759
-0.195809 -0.208579 0.323159
-0.0962514 -0.127659 0.334334
0.0193097 0.00262821 0.327291
0.140656 0.151447 0.292102
0.252812 0.283065 0.227129
0.340726 0.372467 0.144383
0.395014 0.409269 0.0562979
0.412252 0.400685 -0.0212768
0.396707 0.364981 -0.0766246
0.356325 0.3196 -0.109213
0.300595 0.276505 -0.123104
0.23979 0.238354 -0.130528
0.179454 0.201016 -0.142687
0.123579 0.158882 -0.15708
0.0752797 0.118399 -0.164461
0.0380365 0.0842011 -0.156376
0.0132566 0.0561481 -0.128958
-0.341059 -0.0427496 0.0521046
-0.365067 -0.105966 0.0814275
-0.359262 -0.173277 0.114615
-0.317196 -0.214523 0.151207
-0.240157 -0.203206 0.193495
-0.135706 -0.130958 0.236824
-0.0150161 -0.000480043 0.274966
0.110416 0.156958 0.290774
0.22475 0.302209 0.274959
0.312521 0.406483 0.232658
0.364016 0.456102 0.172815
0.375422 0.456302 0.111591
0.351863 0.424408 0.0634669
0.302213 0.377616 0.0320576
0.237273 0.328313 0.0156078
0.168626 0.279851 0.00270614
0.103149 0.229312 -0.0182782
0.0458993 0.173779 -0.0463275
0.000627096 0.122342 -0.0710457
-0.0293006 0.080944 -0.0825683
-0.0439614 0.0494935 -0.0757541
-0.334849 0.0177174 -0.0386516
-0.356853 -0.0454955 -0.0452508
-0.349156 -0.12311 -0.0411652
-0.306301 -0.1805 -0.0196685
-0.230407 -0.186722 0.0275523
-0.129205 -0.130296 0.0975388
-0.0139121 -0.00903146 0.177426
0.103956 0.14735 0.243028
0.209082 0.29827 0.277088
0.286745 0.412817 0.276485
0.327797 0.474738 0.246109
0.32879 0.486711 0.202081
0.295489 0.463586 0.161615
0.237279 0.420448 0.131714
0.16582 0.368445 0.113297
0.0932846 0.310921 0.096158
0.0270332 0.24651 0.0685559
-0.0275797 0.176025 0.0306853
-0.0665849 0.111739 -0.00632781
-0.0872659 0.0620495 -0.0316721
-0.0917319 0.0282571 -0.0393473
-0.281457 0.0809669 -0.112549
-0.295644 0.0216503 -0.15453
-0.283526 -0.0623118 -0.182572
-0.241475 -0.134083 -0.182054
-0.172218 -0.159937 -0.138392
-0.0827386 -0.12512 -0.0525463
0.0171169 -0.0214763 0.0578422
0.117183 0.124837 0.162732
0.204088 0.273959 0.237568
0.264821 0.394587 0.270713
0.291499 0.468613 0.263178
0.281577 0.495454 0.230969
0.240879 0.485851 0.194017
0.17859 0.450867 0.162975
0.106402 0.398866 0.141763
0.0360746 0.332733 0.1217
-0.0255856 0.253069 0.0911647
-0.0738788 0.165658 0.0501939
-0.105104 0.0867212 0.00957906
-0.117434 0.0281022 -0.0198208
-0.114657 -0.00676656 -0.0316945
-0.198637 0.139555 -0.153874
-0.203096 0.087643 -0.224019
-0.187322 0.00182225 -0.281426
-0.149618 -0.0814767 -0.304105
-0.0927334 -0.127846 -0.271833
-0.0219339 -0.119109 -0.183307
0.0555038 -0.0402862 -0.0580437
0.131928 0.0880466 0.0700322
0.196915 0.228998 0.170463
0.239721 0.352508 0.224249
0.253986 0.439232 0.229208
0.238055 0.484507 0.201202
0.196879 0.493258 0.162543
0.138498 0.470647 0.127293
0.0735602 0.420942 0.102338
0.012465 0.346326 0.0804925
-0.0394634 0.249964 0.0503498
-0.0789251 0.143907 0.0123989
-0.102817 0.049201 -0.0236794
-0.110081 -0.0182106 -0.0475926
-0.105484 -0.0524549 -0.0532853
-0.113281 0.18763 -0.159063
-0.11116 0.145348 -0.246596
-0.0960674 0.0614695 -0.326891
-0.0677637 -0.0305408 -0.372403
-0.0282569 -0.0975304 -0.35827
0.0197896 -0.117752 -0.280033
0.0722893 -0.068971 -0.155915
0.124759 0.0354639 -0.021249
0.170039 0.163747 0.0894885
0.19971 0.288353 0.152025
0.208645 0.389068 0.161526
0.195457 0.456297 0.133283
0.163213 0.487647 0.0909452
0.11786 0.480832 0.0508128
0.0680006 0.435228 0.022147
0.0220609 0.352263 -0.00100281
-0.0165916 0.23831 -0.0296202
-0.0463088 0.1128 -0.0620537
-0.0646596 0.00241456 -0.0895509
-0.0708992 -0.0725867 -0.102335
-0.0697676 -0.104128 -0.0950169
-0.0471038 0.221151 -0.132455
-0.0447103 0.188957 -0.226307
-0.0362533 0.109475 -0.32202
-0.0220603 0.0113005 -0.38901
-0.00266332 -0.0750899 -0.398722
0.0224513 -0.124537 -0.341977
0.0523192 -0.107801 -0.23255
0.085577 -0.0302223 -0.104506
0.117919 0.0831271 0.00577386
0.142813 0.208088 0.0711386
0.155654 0.323755 0.0840079
0.154326 0.41503 0.0578503
0.139233 0.471278 0.0156028
0.113634 0.481971 -0.0264193
0.0835073 0.44153 -0.0576729
0.0552417 0.350717 -0.0831116
0.0303941 0.219598 -0.112759
0.00925499 0.0755936 -0.142652
-0.00622177 -0.0486747 -0.163556
-0.0149913 -0.128925 -0.165389
-0.0207944 -0.155829 -0.143571
-0.00437043 0.238759 -0.0806362
-0.00657063 0.215675 -0.172179
-0.00895422 0.141275 -0.27736
-0.0108745 0.0387827 -0.364469
-0.0108894 -0.0647656 -0.402321
-0.00519397 -0.141348 -0.375923
0.0077903 -0.155719 -0.291221
0.0292859 -0.105208 -0.178255
0.0569257 -0.00722097 -0.0732497
0.0852892 0.117921 -0.0040461
0.10947 0.248656 0.0182985
0.125662 0.364201 0.00327833
0.131287 0.445488 -0.0298981
0.126815 0.473787 -0.0678152
0.115582 0.439189 -0.0999515
0.102485 0.341988 -0.130367
0.0879072 0.196129 -0.1671
0.0714615 0.0368333 -0.201945
0.0551437 -0.0977349 -0.223396
0.0408721 -0.180402 -0.220081
0.0268947 -0.200946 -0.187608
0.0230534 0.238316 -0.0119614
0.0147248 0.221686 -0.0945865
0.00151114 0.151974 -0.204435
-0.01416 0.0471326 -0.310852
-0.0289339 -0.0691141 -0.379529
-0.0362736 -0.167584 -0.388342
-0.033107 -0.209038 -0.334137
-0.016342 -0.1832 -0.240592
0.0126053 -0.0996125 -0.141748
0.048672 0.0253651 -0.0646365
0.0862252 0.16957 -0.024347
0.11951 0.306883 -0.0174037
0.143332 0.410525 -0.0312081
0.155828 0.454582 -0.0578326
0.158186 0.426062 -0.088207
0.154483 0.325275 -0.12557
0.144483 0.169908 -0.175106
0.128036 0.00166292 -0.2234
0.107734 -0.137701 -0.254448
0.0863863 -0.218796 -0.253608
0.0642611 -0.232261 -0.217176
0.0557805 0.219331 0.0691342
0.0455 0.206724 -0.000511895
0.026891 0.141172 -0.112068
0.00395533 0.0366035 -0.236779
-0.0183837 -0.0868673 -0.338263
-0.0316171 -0.199838 -0.385964
-0.0317754 -0.261379 -0.36561
-0.0150017 -0.256058 -0.293334
0.0177159 -0.185559 -0.199428
0.0610814 -0.0623836 -0.109399
0.108716 0.0910621 -0.0428536
0.153255 0.244473 -0.00406061
0.187596 0.365042 0.0106019
0.208288 0.42157 0.00153371
0.215235 0.399454 -0.0248792
0.211934 0.299396 -0.07129
0.19881 0.141624 -0.139392
0.176458 -0.0275801 -0.208632
0.148549 -0.164995 -0.25696
0.118858 -0.240504 -0.266133
0.0889219 -0.246237 -0.231486
0.108158 0.187495 0.155746
0.103648 0.176461 0.1009
0.0881318 0.114974 -0.0102614
0.0667222 0.0128952 -0.150878
0.0451751 -0.111782 -0.283087
0.0329565 -0.231884 -0.369966
0.0342616 -0.306413 -0.384413
0.0532752 -0.316436 -0.333863
0.0887192 -0.257874 -0.244289
0.134885 -0.139324 -0.139415
0.184992 0.017081 -0.0432625
0.231025 0.17851 0.0314338
0.265037 0.308466 0.0782064
0.28309 0.372794 0.0891498
0.284618 0.35691 0.0672261
0.273275 0.26175 0.0100758
0.250835 0.109486 -0.0795407
0.218349 -0.0520662 -0.172369
0.180362 -0.180768 -0.241532
0.141548 -0.246765 -0.26439
0.104589 -0.244623 -0.235365
0.168742 0.148746 0.229264
0.175906 0.138159 0.188274
0.170006 0.0818146 0.0811197
0.156663 -0.0141717 -0.0658339
0.141803 -0.134094 -0.21635
0.133918 -0.253344 -0.332124
0.137377 -0.333877 -0.376249
0.156751 -0.354336 -0.346691
0.190278 -0.307072 -0.263888
0.23225 -0.197148 -0.150554
0.276411 -0.0456791 -0.0329993
0.315306 0.11405 0.0691913
0.3412 0.244567 0.141095
0.350316 0.311259 0.168381
0.342118 0.300773 0.150355
0.320371 0.214412 0.0857834
0.287614 0.0748599 -0.0179387
0.244629 -0.071788 -0.126179
0.197773 -0.185933 -0.209383
0.15135 -0.239829 -0.244105
0.109172 -0.230561 -0.223511
0.220282 0.106958 0.271315
0.242586 0.0962085 0.244018
0.251346 0.0462871 0.146997
0.25132 -0.0397562 0.0042183
0.246527 -0.148198 -0.149438
0.244116 -0.25917 -0.278396
0.247665 -0.338561 -0.340939
0.261532 -0.365003 -0.329482
0.28575 -0.328434 -0.25708
0.315486 -0.231398 -0.145026
0.346443 -0.0931407 -0.0196113
0.373136 0.0547609 0.0959295
0.388804 0.17661 0.181562
0.389837 0.239901 0.21928
0.375211 0.233445 0.205483
0.346824 0.159298 0.140329
0.307021 0.03879 0.0334462
0.257114 -0.0858727 -0.0780738
0.20411 -0.180463 -0.167797
0.152754 -0.220883 -0.209749
0.10714 -0.205976 -0.197439
0.243527 0.0658007 0.276975
0.277392 0.0545711 0.261807
0.299353 0.0121643 0.181191
0.311369 -0.0600922 0.0538309
0.315547 -0.152059 -0.0893436
0.317242 -0.248435 -0.215247
0.318995 -0.32071 -0.284044
0.324431 -0.348918 -0.2856
0.335472 -0.321897 -0.227661
0.350036 -0.24079 -0.127781
0.365929 -0.122199 -0.0101406
0.380178 0.00590198 0.102189
0.38739 0.111914 0.188179
0.384108 0.167403 0.228974
0.368244 0.163774 0.220099
0.339486 0.103611 0.161832
0.299386 0.00589996 0.0644702
0.249046 -0.0935133 -0.0384311
0.195377 -0.166325 -0.123057
0.143856 -0.193341 -0.16539
0.0985947 -0.17517 -0.159468
0.227413 0.0297861 0.242578
0.265078 0.0184749 0.237
0.29364 -0.0151804 0.177592
0.312456 -0.0721183 0.0765582
0.321527 -0.145303 -0.0420434
0.324599 -0.223463 -0.148827
0.322919 -0.284213 -0.211698
0.32021 -0.310369 -0.220158
0.318924 -0.291414 -0.179106
0.319645 -0.227526 -0.100793
0.323019 -0.132173 -0.0050059
0.327956 -0.0284208 0.0888111
0.330635 0.0577545 0.162427
0.327561 0.103621 0.199223
0.315302 0.102386 0.194829
0.292295 0.0565438 0.150256
0.259 -0.0179734 0.0738858
0.215898 -0.0924586 -0.00868796
0.168814 -0.144409 -0.0775692
0.123136 -0.159593 -0.113154
0.0823716 -0.140963 -0.112542
-0.0608055 -0.121325 -0.00636105
-0.0537724 -0.155361 -0.00535185
-0.0417342 -0.179236 -0.0102868
-0.02582 -0.187837 -0.0268221
-0.00862758 -0.182774 -0.0554287
0.00781387 -0.167193 -0.0956557
0.0221771 -0.151156 -0.142696
0.0333039 -0.142725 -0.190348
0.0392623 -0.143206 -0.22948
0.0398473 -0.14963 -0.250159
0.0344205 -0.1551 -0.24872
0.0233365 -0.151525 -0.226133
0.0080824 -0.133199 -0.189814
-0.00947865 -0.100807 -0.152765
-0.0273933 -0.0615042 -0.124908
-0.0430401 -0.0247602 -0.113911
-0.055537 0.000762233 -0.120992
-0.0640888 0.00976635 -0.135035
-0.0680982 0.00633225 -0.140807
-0.0663966 -0.00315341 -0.131209
-0.0593857 -0.0120699 -0.104686
-0.0748056 -0.150045 0.0419759
-0.0641771 -0.190532 0.0576538
-0.0464612 -0.217117 0.0623549
-0.0225714 -0.223665 0.048254
0.00466693 -0.21111 0.0136547
0.0325474 -0.182748 -0.0412964
0.0586478 -0.15038 -0.109022
0.081396 -0.126244 -0.182182
0.0974528 -0.114969 -0.249646
0.105025 -0.115165 -0.297389
0.102864 -0.119808 -0.319013
0.091523 -0.119244 -0.313362
0.073327 -0.105426 -0.287106
0.0509272 -0.0774319 -0.254152
0.0274811 -0.0414243 -0.225611
0.00605849 -0.00714318 -0.211686
-0.0123079 0.0154643 -0.215163
-0.0269962 0.0202306 -0.223065
-0.0372953 0.0117633 -0.219676
-0.0417837 -0.00206752 -0.19752
-0.0406075 -0.0140057 -0.155051
-0.101318 -0.174434 0.107073
-0.0889175 -0.221475 0.142508
-0.0661566 -0.251369 0.162055
-0.033175 -0.256434 0.155913
0.00722915 -0.235697 0.121142
0.0513499 -0.191943 0.0563832
0.0954566 -0.138191 -0.0282165
0.13652 -0.0918384 -0.12526
0.169516 -0.0626131 -0.222227
0.190406 -0.0520655 -0.30169
0.196611 -0.0543032 -0.35375
0.188776 -0.0583684 -0.373798
0.169881 -0.0532937 -0.366006
0.143997 -0.0353247 -0.343458
0.115191 -0.00804703 -0.317941
0.0873505 0.0194765 -0.301557
0.0615376 0.0363755 -0.299705
0.0380219 0.0358332 -0.299422
0.017694 0.0226314 -0.286013
0.00243333 0.00516765 -0.252219
-0.00711873 -0.00936693 -0.19672
-0.148687 -0.184942 0.167228
-0.138318 -0.237865 0.221082
-0.112608 -0.272317 0.255952
-0.0702796 -0.277935 0.261652
-0.0142941 -0.250727 0.234142
0.0500742 -0.19256 0.169278
0.116931 -0.116708 0.0789385
0.181625 -0.0454502 -0.0313161
0.236908 0.00524069 -0.148978
0.275914 0.0296352 -0.254757
0.294554 0.0315253 -0.335219
0.293223 0.022715 -0.381578
0.2755 0.0171027 -0.394247
0.246613 0.0217057 -0.384291
0.212135 0.0360333 -0.363503
0.176674 0.0525866 -0.346017
0.141632 0.06048 -0.340005
0.107262 0.0525425 -0.334509
0.0748092 0.034172 -0.315754
0.0469064 0.0138106 -0.276762
0.0258914 -0.00234414 -0.215734
-0.2188 -0.175933 0.201429
-0.215064 -0.233725 0.265399
-0.189482 -0.274483 0.310727
-0.139124 -0.283953 0.328415
-0.0673876 -0.253963 0.314419
0.0184515 -0.184769 0.261954
0.109723 -0.0891825 0.182346
0.199581 0.00638274 0.0775591
0.278192 0.0793714 -0.0428632
0.336216 0.118919 -0.159705
0.368069 0.126032 -0.257179
0.373675 0.112915 -0.322474
0.357344 0.0961393 -0.351612
0.325459 0.0859731 -0.352774
0.284718 0.0849967 -0.337104
0.240911 0.0879063 -0.320517
0.196149 0.084193 -0.314065
0.151255 0.0670079 -0.309677
0.107981 0.0430149 -0.294849
0.0700366 0.0203552 -0.261004
0.0413501 0.00374401 -0.205225
-0.301992 -0.147534 0.188027
-0.30846 -0.209414 0.247818
-0.286098 -0.258689 0.293718
-0.230575 -0.275973 0.31935
-0.145789 -0.247841 0.322849
-0.0411764 -0.172614 0.296625
0.0716866 -0.0616988 0.248241
0.183518 0.0552334 0.173096
0.28205 0.149234 0.0746711
0.35594 0.203906 -0.030732
0.398198 0.217101 -0.127389
0.408112 0.200963 -0.199396
0.390961 0.174218 -0.238076
0.354478 0.149966 -0.24769
0.306575 0.133733 -0.237631