# vtk DataFile Version 2.0
Func
ASCII
DATASET RECTILINEAR_GRID
DIMENSIONS 21 21 21
X_COORDINATES 21 double
-4.7619
-4.28571
-3.80952
-3.33333
-2.85714
-2.38095
-1.90476
-1.42857
-0.952381
-0.47619
0
0.47619
0.952381
1.42857
1.90476
2.38095
2.85714
3.33333
3.80952
4.28571
4.7619
Y_COORDINATES 21 double
-4.7619
-4.28571
-3.80952
-3.33333
-2.85714
-2.38095
-1.90476
-1.42857
-0.952381
-0.47619
0
0.47619
0.952381
1.42857
1.90476
2.38095
2.85714
3.33333
3.80952
4.28571
4.7619
Z_COORDINATES 21 double
-4.7619
-4.28571
-3.80952
-3.33333
-2.85714
-2.38095
-1.90476
-1.42857
-0.952381
-0.47619
0
0.47619
0.952381
1.42857
1.90476
2.38095
2.85714
3.33333
3.80952
4.28571
4.7619
POINT_DATA 9261
SCALARS data double 3
LOOKUP_TABLE default
0.0573415 -0.149918 -0.00112027
0.06788 -0.218094 -0.0477137
0.0804989 -0.276435 -0.113405
0.0919449 -0.309924 -0.1821
0.0985883 -0.312347 -0.229534
0.0965205 -0.281518 -0.236259
0.0820733 -0.230589 -0.19033
0.053094 -0.173185 -0.0973207
0.0108386 -0.125801 0.0211751
-0.0388176 -0.104822 0.136445
-0.0864832 -0.115998 0.217825
-0.121924 -0.156676 0.245535
-0.137219 -0.215336 0.215458
-0.128144 -0.275217 0.138883
-0.0952974 -0.318095 0.0391359
-0.0445021 -0.330834 -0.0585971
0.0143953 -0.310142 -0.133055
0.0700762 -0.261589 -0.172283
0.112762 -0.197759 -0.177983
0.136161 -0.131458 -0.158227
0.136511 -0.0738605 -0.122516
0.0861252 -0.179394 0.0284299
0.0967439 -0.25347 -0.0245122
0.107282 -0.313106 -0.106116
0.115152 -0.343308 -0.194725
0.117837 -0.339462 -0.260041
0.111682 -0.301072 -0.275667
0.09271 -0.244704 -0.224085
0.0583484 -0.186736 -0.11207
0.0087102 -0.144753 0.0323641
-0.0510237 -0.13523 0.172206
-0.110596 -0.161702 0.268812
-0.157653 -0.21863 0.297712
-0.182365 -0.291154 0.254763
-0.178441 -0.359577 0.15559
-0.145651 -0.40348 0.0298868
-0.0900039 -0.409088 -0.0902954
-0.0227301 -0.374884 -0.179211
0.0427325 -0.308656 -0.223111
0.0948201 -0.226335 -0.225674
0.12567 -0.143509 -0.197856
0.131214 -0.0742413 -0.151733
0.102721 -0.204141 0.0625664
0.111318 -0.278075 0.00851337
0.1183 -0.333286 -0.0827169
0.122175 -0.356664 -0.185568
0.121617 -0.345977 -0.265329
0.113891 -0.302822 -0.290157
0.0946459 -0.24637 -0.237387
0.0604118 -0.194389 -0.115575
0.00935797 -0.163939 0.0423752
-0.0552828 -0.169639 0.193267
-0.123077 -0.212432 0.293424
-0.180735 -0.28378 0.316386
-0.216736 -0.366105 0.259642
-0.223183 -0.437949 0.14335
-0.198298 -0.478378 0.00237346
-0.14736 -0.474186 -0.127183
-0.0816656 -0.425965 -0.217722
-0.0149061 -0.343579 -0.256421
0.0409196 -0.245668 -0.249813
0.0774496 -0.149682 -0.212402
0.090642 -0.0718865 -0.158096
0.0986129 -0.218447 0.0930831
0.103019 -0.287816 0.0408664
0.105938 -0.335462 -0.0548975
0.107726 -0.351375 -0.165874
0.108152 -0.335382 -0.256438
0.104679 -0.290756 -0.289572
0.0921175 -0.237995 -0.239849
0.0655993 -0.195403 -0.11728
0.0202809 -0.178499 0.0416011
-0.0429112 -0.199278 0.190459
-0.114522 -0.25623 0.283785
-0.181238 -0.338309 0.296002
-0.23011 -0.426115 0.227802
-0.2513 -0.497613 0.103578
-0.241804 -0.53228 -0.038345
-0.205372 -0.518611 -0.160622
-0.151664 -0.459367 -0.237335
-0.0929407 -0.365793 -0.260351
-0.0402052 -0.258189 -0.239045
-0.00150432 -0.154426 -0.191748
0.0195062 -0.0721923 -0.134198
0.0733008 -0.218842 0.111308
0.0729238 -0.281198 0.0623364
0.0729476 -0.32109 -0.0328314
0.0757592 -0.331767 -0.14622
0.0812681 -0.314233 -0.241848
0.087539 -0.272072 -0.281088
0.0874476 -0.225596 -0.237564
0.074659 -0.192697 -0.123189
0.0415848 -0.187286 0.0240705
-0.013588 -0.218794 0.15823
-0.0832231 -0.284336 0.235692
-0.154938 -0.371493 0.234749
-0.214979 -0.460175 0.16056
-0.251958 -0.528824 0.0408912
-0.261679 -0.557756 -0.0852405
-0.246389 -0.537967 -0.18212
-0.21318 -0.473266 -0.229266
-0.171268 -0.375863 -0.226851
-0.129389 -0.26601 -0.187257
-0.0939787 -0.161024 -0.132031
-0.0678912 -0.0786065 -0.0780897
0.0289387 -0.206905 0.111828
0.0240328 -0.262389 0.06683
0.023818 -0.297107 -0.0234937
0.0317028 -0.306592 -0.132983
0.0475877 -0.291543 -0.228427
0.0688574 -0.254689 -0.271009
0.0863227 -0.214833 -0.23653
0.0921582 -0.188993 -0.138359
0.0760046 -0.189851 -0.0134044
0.033625 -0.225076 0.0962749
-0.0292702 -0.291853 0.152774
-0.101637 -0.377712 0.140781
-0.169394 -0.462983 0.070374
-0.22019 -0.527366 -0.029051
-0.249151 -0.55247 -0.121745
-0.257133 -0.531297 -0.177351
-0.248271 -0.468061 -0.183496
-0.228294 -0.37497 -0.150861
-0.202983 -0.270837 -0.0948392
-0.176265 -0.171442 -0.0382728
-0.149557 -0.0925486 0.0032556
-0.0161922 -0.185517 0.0992775
-0.0233429 -0.236512 0.0572375
-0.0204992 -0.270701 -0.0267177
-0.00439374 -0.284162 -0.129518
0.0241036 -0.275109 -0.221492
0.061484 -0.244723 -0.265235
0.0969708 -0.209367 -0.2401
0.121583 -0.185399 -0.160484
0.122821 -0.184878 -0.0607837
0.0949182 -0.215455 0.0228644
0.0419965 -0.276097 0.0600383
-0.0262355 -0.355595 0.0425443
-0.0959337 -0.435416 -0.0152039
-0.154619 -0.496561 -0.083971
-0.197552 -0.521769 -0.133855
-0.224982 -0.504737 -0.142251
-0.238554 -0.448925 -0.105866
-0.240778 -0.366551 -0.0455666
-0.234577 -0.273581 0.0206462
-0.220929 -0.184189 0.0710025
-0.199418 -0.111034 0.0928871
-0.0490771 -0.158696 0.0788203
-0.0550105 -0.208904 0.0394551
-0.0463981 -0.248205 -0.0368308
-0.0208463 -0.270808 -0.129763
0.0196791 -0.270546 -0.213283
0.0704662 -0.24646 -0.253769
0.119946 -0.21201 -0.235048
0.158514 -0.182854 -0.172341
0.173188 -0.172239 -0.0967641
0.157839 -0.189744 -0.0376165
0.115856 -0.237849 -0.0169036
0.0560144 -0.307719 -0.0357204
-0.00862953 -0.382208 -0.0762191
-0.0665067 -0.442964 -0.110831
-0.114026 -0.472874 -0.117153
-0.151947 -0.46522 -0.0816117
-0.180589 -0.421222 -0.00964261
-0.200427 -0.352853 0.0696225
-0.212091 -0.273391 0.136969
-0.213831 -0.195553 0.173632
-0.203161 -0.128726 0.171692
-0.0611904 -0.131464 0.0557009
-0.0630141 -0.184213 0.01871
-0.0479189 -0.232476 -0.0477438
-0.0150507 -0.266983 -0.125913
0.0326479 -0.276294 -0.19397
0.0893728 -0.256713 -0.224538
0.143895 -0.218443 -0.206978
0.187413 -0.177303 -0.15744
0.208326 -0.149424 -0.10321
0.201393 -0.14816 -0.0666729
0.170204 -0.180737 -0.0609297
0.122997 -0.241252 -0.08029
0.0713259 -0.313556 -0.104378
0.0246291 -0.378585 -0.108413
-0.0157295 -0.417906 -0.0782477
-0.0522523 -0.422632 -0.00945978
-0.0853267 -0.391443 0.0851739
-0.114866 -0.336209 0.171361
-0.140118 -0.267861 0.229943
-0.156992 -0.199069 0.247493
-0.160995 -0.13736 0.22186
-0.0511725 -0.106957 0.0300251
-0.0471589 -0.163786 -0.00486731
-0.0270493 -0.221508 -0.0598662
0.00820043 -0.267378 -0.118922
0.0548988 -0.284296 -0.164876
0.106731 -0.266167 -0.178713
0.15437 -0.220122 -0.156024
0.191253 -0.162851 -0.114078
0.209067 -0.114563 -0.0763495
0.20467 -0.0934908 -0.0590473
0.182662 -0.111858 -0.0667123
0.151017 -0.16648 -0.0877239
0.119098 -0.241354 -0.100212
0.0931248 -0.315153 -0.0829096
0.0713954 -0.366816 -0.0295687
0.0486854 -0.383898 0.0559778
0.0231604 -0.362692 0.156006
-0.00597961 -0.315643 0.235667
-0.0375307 -0.252624 0.27713
-0.0658131 -0.188158 0.273706
-0.0852109 -0.129643 0.229451
-0.0308025 -0.0854518 -0.00508698
-0.0215711 -0.145936 -0.0392214
0.00021117 -0.211472 -0.081918
0.0317599 -0.266166 -0.11835
0.0689598 -0.287952 -0.136289
0.105791 -0.268777 -0.126319
0.136051 -0.212974 -0.0914677
0.156432 -0.138565 -0.0506684
0.163197 -0.0703954 -0.0240103
0.15612 -0.031959 -0.022583
0.141128 -0.0400698 -0.0431722
0.125875 -0.0936435 -0.0691565
0.117038 -0.175846 -0.0779143
0.117042 -0.261687 -0.0518453
0.12091 -0.326434 0.00884205
0.120501 -0.353186 0.0937563
0.111753 -0.336455 0.182822
0.0921545 -0.290226 0.245107
0.0626744 -0.224988 0.26548
0.0296771 -0.159054 0.244278
-0.000975196 -0.101845 0.191048
-0.015007 -0.0636363 -0.057674
-0.00335187 -0.125434 -0.093845
0.015882 -0.195347 -0.124758
0.0382161 -0.25535 -0.136883
0.0593927 -0.279757 -0.123078
0.07454 -0.258793 -0.0836665
0.0811186 -0.194165 -0.0306794
0.0794392 -0.105231 0.0146565
0.0706367 -0.0212235 0.0350331
0.0576714 0.0295098 0.0235864
0.0475456 0.0264568 -0.009784
0.0471766 -0.0306382 -0.0443452
0.0603596 -0.12334 -0.057256
0.0858059 -0.222135 -0.0344126
0.115789 -0.298111 0.0194885
0.140007 -0.329695 0.0894669
0.152204 -0.310501 0.155425
0.148162 -0.257194 0.194027
0.128307 -0.182626 0.194157
0.0987965 -0.110356 0.16247
0.0647848 -0.0536262 0.112403
-0.0132203 -0.0374252 -0.128651
-0.00275866 -0.0966298 -0.16982
0.0104071 -0.166348 -0.190438
0.0203474 -0.227865 -0.178946
0.0228912 -0.253564 -0.133328
0.0149922 -0.232038 -0.0625947
-0.00245234 -0.162405 0.0110364
-0.0259047 -0.0648875 0.0637451
-0.0501142 0.0280732 0.0805582
-0.0693483 0.0845355 0.0583593
-0.0763753 0.0815241 0.0125501
-0.065717 0.018164 -0.0329438
-0.0363298 -0.0852576 -0.0555561
0.00754236 -0.194772 -0.0444833
0.0566926 -0.277666 -0.00692796
0.100305 -0.30828 0.0393949
0.130859 -0.280305 0.0760731
0.143297 -0.214013 0.0897486
0.137612 -0.125899 0.0744607
0.119052 -0.0452158 0.0417468
0.0912031 0.0104631 0.00683714
-0.0235071 -0.00399837 -0.206876
-0.0163932 -0.0556585 -0.253914
-0.0103067 -0.120939 -0.265537
-0.0122026 -0.180887 -0.233056
-0.0259855 -0.2078 -0.159531
-0.0525214 -0.188617 -0.0607979
-0.08829 -0.1197 0.0308955
-0.1275 -0.0212305 0.0895638
-0.162361 0.0728638 0.10246
-0.185522 0.128836 0.0701331
-0.190811 0.122509 0.0122583
-0.175031 0.0528183 -0.0450661
-0.139504 -0.0584283 -0.0801163
-0.090129 -0.173792 -0.0852642
-0.0357335 -0.257914 -0.0685233
0.0146282 -0.282232 -0.0487649
0.053816 -0.24127 -0.0417285
0.077495 -0.159534 -0.0498313
0.0857788 -0.0576852 -0.0734265
0.082546 0.030257 -0.0980904
0.06939 0.0821236 -0.108792
-0.0362979 0.0359662 -0.27431
-0.0324296 -0.00405738 -0.32538
-0.0317995 -0.0615708 -0.328692
-0.0416281 -0.118297 -0.279325
-0.065395 -0.147113 -0.185053
-0.102266 -0.133547 -0.066534
-0.147354 -0.0710429 0.0359147
-0.193584 0.0216097 0.0953064
-0.232433 0.110846 0.10143
-0.256411 0.162902 0.0585756
-0.261501 0.153275 -0.0104205
-0.247291 0.0806796 -0.0784062
-0.216843 -0.0325131 -0.125173
-0.176245 -0.147098 -0.146228
-0.132144 -0.22667 -0.149419
-0.089783 -0.241253 -0.153573
-0.0539763 -0.18685 -0.171595
-0.0272079 -0.0919429 -0.196104
-0.00878618 0.0192131 -0.221518
0.00377635 0.108913 -0.23188
0.00981731 0.152092 -0.214451
-0.035601 0.0768925 -0.309762
-0.0315533 0.0507728 -0.358825
-0.0316708 0.00264987 -0.352946
-0.0431156 -0.050465 -0.290723
-0.0689759 -0.0828179 -0.184164
-0.106798 -0.0777751 -0.0573034
-0.151196 -0.0256368 0.0451564
-0.195596 0.0567851 0.0970241
-0.231891 0.138156 0.0912662
-0.254038 0.186147 0.0359947
-0.260993 0.176482 -0.0436352
-0.255132 0.107258 -0.120448
-0.240506 6.43767e-05 -0.176423
-0.222065 -0.106216 -0.210263
-0.202734 -0.175994 -0.229343
-0.182058 -0.179885 -0.25201
-0.162018 -0.114732 -0.2887
-0.141757 -0.0123331 -0.323969
-0.11946 0.0994848 -0.346464
-0.0943127 0.18252 -0.340425
-0.0692391 0.211742 -0.2961
-0.0108958 0.115031 -0.299208
-0.00156046 0.103147 -0.338154
0.00337227 0.0647264 -0.321341
-0.00304915 0.0151014 -0.250409
-0.0231445 -0.0216906 -0.140552
-0.0538567 -0.0268953 -0.0180376
-0.0896405 0.0123149 0.0728956
-0.125153 0.0822524 0.108901
-0.154144 0.154558 0.0866913
-0.172991 0.199719 0.0178772
-0.183801 0.194079 -0.0710385
-0.191301 0.134674 -0.153961
-0.199858 0.0409545 -0.215663
-0.212359 -0.0506506 -0.257981
-0.226932 -0.107471 -0.287954
-0.237574 -0.101586 -0.323161
-0.242386 -0.0306251 -0.371941
-0.236718 0.0715028 -0.412873
-0.217488 0.174408 -0.43059
-0.185314 0.242745 -0.410007
-0.145738 0.254138 -0.345053
0.0301942 0.145095 -0.246582
0.048091 0.145839 -0.270207
0.0612701 0.116552 -0.243278
0.063485 0.0705676 -0.169307
0.0532261 0.0297754 -0.0652488
0.0334365 0.0145601 0.0419372
0.00948854 0.0403799 0.113081
-0.0141002 0.0974029 0.129344
-0.0335599 0.160887 0.0910825
-0.0480159 0.20501 0.0121128
-0.0622921 0.207103 -0.0813261
-0.0828245 0.162813 -0.165557
-0.113931 0.0883223 -0.228528
-0.156264 0.0156988 -0.274375
-0.203485 -0.026779 -0.31017
-0.24498 -0.0139786 -0.351661
-0.275174 0.0560189 -0.404945
-0.286304 0.148839 -0.44646
-0.27426 0.234314 -0.458579
-0.240993 0.282058 -0.428991
-0.194247 0.274326 -0.354203
0.0718006 0.161675 -0.172544
0.0987263 0.171626 -0.179937
0.120718 0.149953 -0.145702
0.132631 0.10803 -0.0742922
0.133455 0.0650884 0.0176706
0.125364 0.0420264 0.103196
0.113292 0.0561778 0.151416
0.100393 0.101459 0.148643
0.0894665 0.157328 0.0984577
0.0788306 0.201838 0.0155461
0.0619948 0.21366 -0.0754942
0.0317945 0.186981 -0.154364
-0.0157639 0.134091 -0.212323
-0.0796135 0.081545 -0.255322
-0.150642 0.0525961 -0.290779
-0.21467 0.0686228 -0.332066
-0.263789 0.131388 -0.384023
-0.28849 0.208507 -0.423545
-0.284469 0.271672 -0.433375
-0.254421 0.29688 -0.401869
-0.207217 0.271614 -0.327501
0.100178 0.161531 -0.0978231
0.132804 0.176167 -0.091806
0.160486 0.160349 -0.0544976
0.179213 0.123312 0.00954967
0.188162 0.081073 0.0850657
0.188462 0.0537704 0.147521
0.184533 0.0593004 0.174697
0.178528 0.0947777 0.15785
0.172992 0.144093 0.102598
0.165033 0.189042 0.0232504
0.147595 0.210141 -0.0585996
0.113687 0.200461 -0.12653
0.0597409 0.168383 -0.174766
-0.0125352 0.13453 -0.210381
-0.0924778 0.116875 -0.240612
-0.164955 0.132794 -0.276806
-0.221034 0.183937 -0.322593
-0.251363 0.241669 -0.358382
-0.252728 0.281739 -0.367343
-0.228298 0.286799 -0.339337
-0.18644 0.249117 -0.273815
0.104518 0.144425 -0.040517
0.136807 0.159857 -0.0272453
0.164665 0.148759 0.00765573
0.185188 0.117598 0.0596184
0.197467 0.0790475 0.115967
0.202126 0.0515949 0.157229
0.202565 0.0523912 0.168931
0.200385 0.0808142 0.146151
0.197606 0.12445 0.0949858
0.191228 0.168238 0.0280183
0.175358 0.195305 -0.0375358
0.144047 0.198372 -0.0895184
0.0941859 0.182654 -0.124635
0.0280531 0.163405 -0.149978
-0.0446022 0.153958 -0.172252
-0.109947 0.167783 -0.199956
-0.160433 0.206774 -0.235966
-0.188321 0.246722 -0.26582
-0.191665 0.267492 -0.274591
-0.173988 0.25814 -0.25394
-0.142328 0.214557 -0.203976
0.0639554 -0.208684 -0.00701633
0.077382 -0.291345 -0.0565725
0.0919238 -0.353793 -0.126869
0.10186 -0.379493 -0.200125
0.102276 -0.363027 -0.249298
0.0897054 -0.304921 -0.252175
0.0619083 -0.225643 -0.195682
0.0186064 -0.143528 -0.0875562
-0.036644 -0.078537 0.0467419
-0.0947953 -0.0505157 0.17471
-0.144613 -0.0651668 0.26128
-0.174607 -0.118261 0.284817
-0.177565 -0.195429 0.242307
-0.150797 -0.276254 0.148679
-0.0974197 -0.33841 0.0326063
-0.0261641 -0.365979 -0.0759653
0.0500328 -0.353943 -0.153855
0.117348 -0.307132 -0.189875
0.164945 -0.239947 -0.188565
0.186846 -0.166618 -0.160622
0.180846 -0.1004 -0.117765
0.0992005 -0.24307 0.0231725
0.112766 -0.331697 -0.0332877
0.123742 -0.394417 -0.121176
0.127136 -0.415149 -0.216349
0.119673 -0.390588 -0.284785
0.098979 -0.322594 -0.295954
0.0633058 -0.235449 -0.230705
0.0128454 -0.150623 -0.0986539
-0.0497259 -0.0897565 0.0665577
-0.116198 -0.073008 0.222676
-0.17503 -0.104047 0.325316
-0.212968 -0.175837 0.347655
-0.221694 -0.270511 0.2872
-0.196873 -0.364276 0.164683
-0.141214 -0.43179 0.0168744
-0.0637196 -0.455895 -0.118167
0.0210561 -0.432848 -0.212055
0.0973484 -0.368988 -0.252116
0.152611 -0.281574 -0.245347
0.179838 -0.188551 -0.20622
0.177079 -0.106777 -0.149913
0.120822 -0.266751 0.060191
0.131316 -0.353697 0.00186768
0.136535 -0.410673 -0.0972526
0.133147 -0.423848 -0.208552
0.119738 -0.392516 -0.29269
0.0957963 -0.319943 -0.312712
0.0598463 -0.232808 -0.244058
0.0112545 -0.153852 -0.0988054
-0.049581 -0.1045 0.083302
-0.117359 -0.102982 0.252514
-0.181132 -0.150879 0.358591
-0.227386 -0.238564 0.372588
-0.246491 -0.345637 0.294275
-0.232894 -0.446436 0.15016
-0.187326 -0.514564 -0.0168387
-0.117715 -0.532638 -0.163561
-0.0380355 -0.498485 -0.259727
0.0363368 -0.419595 -0.293924
0.0928915 -0.315197 -0.276343
0.124422 -0.205811 -0.225616
0.129145 -0.111314 -0.159372
0.118083 -0.273176 0.094169
0.122612 -0.352411 0.0364431
0.121694 -0.400452 -0.0691102
0.114747 -0.406728 -0.190236
0.102057 -0.372576 -0.286209
0.0837577 -0.301827 -0.314397
0.057578 -0.221243 -0.247433
0.0213828 -0.153703 -0.0994689
-0.0285463 -0.119013 0.085375
-0.0903809 -0.132627 0.253377
-0.1551 -0.194415 0.352123
-0.20992 -0.292969 0.353775
-0.243825 -0.406587 0.261919
-0.249221 -0.509246 0.108087
-0.225091 -0.574609 -0.0609647
-0.176696 -0.586695 -0.200633
-0.115393 -0.544692 -0.282432
-0.0540636 -0.45642 -0.300145
-0.00351114 -0.341818 -0.26725
0.0296205 -0.222441 -0.20632
0.0433695 -0.119954 -0.13693
0.0892314 -0.259141 0.116412
0.0869601 -0.327526 0.0602475
0.0817428 -0.36689 -0.0469743
0.076167 -0.370012 -0.172516
0.0709998 -0.339205 -0.274605
0.0670025 -0.276905 -0.309533
0.0593676 -0.2079 -0.248961
0.0435478 -0.153665 -0.109159
0.012125 -0.132379 0.0640432
-0.0373001 -0.15667 0.21709
-0.0983752 -0.225966 0.299675
-0.159899 -0.328435 0.288317
-0.209673 -0.442435 0.191476
-0.238033 -0.542857 0.044161
-0.241729 -0.604154 -0.106688
-0.223383 -0.612814 -0.218692
-0.19031 -0.568327 -0.269435
-0.151284 -0.478333 -0.261258
-0.114037 -0.36213 -0.210793
-0.0837702 -0.240742 -0.143551
-0.0626499 -0.135977 -0.0799713
0.0369479 -0.228632 0.119919
0.0281274 -0.286532 0.0658268
0.0220682 -0.320856 -0.0386765
0.0233853 -0.326675 -0.162354
0.0330818 -0.305105 -0.265863
0.0506699 -0.25596 -0.305788
0.0682806 -0.200143 -0.256219
0.0787338 -0.157081 -0.134773
0.0707413 -0.143734 0.0141674
0.0380226 -0.170895 0.141414
-0.0156305 -0.23923 0.203074
-0.0808264 -0.337997 0.182714
-0.14438 -0.44684 0.0938373
-0.194891 -0.54241 -0.0274951
-0.227214 -0.600552 -0.139011
-0.241214 -0.609759 -0.204911
-0.239989 -0.569176 -0.211827
-0.227823 -0.485746 -0.173053
-0.20899 -0.37679 -0.107728
-0.186482 -0.261485 -0.042111
-0.162209 -0.159532 0.0054528
-0.016509 -0.187386 0.10984
-0.0288667 -0.238332 0.0572103
-0.031332 -0.273862 -0.0427307
-0.018957 -0.289005 -0.161674
0.00854755 -0.281189 -0.263827
0.0490093 -0.246887 -0.30772
0.0919308 -0.201876 -0.271086
0.127978 -0.164162 -0.172125
0.142601 -0.14997 -0.0520064
0.126987 -0.17046 0.0469499
0.0830623 -0.229434 0.0893596
0.0187328 -0.318626 0.0665885
-0.0522899 -0.419606 -0.00361575
-0.117624 -0.51068 -0.0863746
-0.171184 -0.569067 -0.147005
-0.211206 -0.583442 -0.159164
-0.23745 -0.551837 -0.119668
-0.250485 -0.480946 -0.0523612
-0.251564 -0.385151 0.0216523
-0.241221 -0.281442 0.0778922
-0.220553 -0.185911 0.101843
-0.0550081 -0.142166 0.0916186
-0.0660541 -0.191442 0.041257
-0.061034 -0.235351 -0.0516205
-0.0356033 -0.265963 -0.161721
0.00906928 -0.27445 -0.257105
0.0687783 -0.253887 -0.300729
0.131431 -0.214727 -0.274745
0.186027 -0.173634 -0.197689
0.216996 -0.148291 -0.10652
0.21469 -0.152587 -0.0354762
0.180454 -0.195271 -0.0102254
0.121547 -0.271563 -0.0315527
0.0516337 -0.364935 -0.0784479
-0.0170303 -0.454332 -0.118904
-0.0788403 -0.517136 -0.127546
-0.131949 -0.541091 -0.0888295
-0.17474 -0.521439 -0.00964035
-0.20583 -0.465245 0.0776936
-0.224528 -0.384644 0.151659
-0.229199 -0.294682 0.191392
-0.219479 -0.207271 0.188117
-0.0688997 -0.100222 0.070339
-0.0744198 -0.152662 0.0232369
-0.0604073 -0.209684 -0.0586199
-0.0241631 -0.258372 -0.153134
0.0318191 -0.282959 -0.23318
0.101463 -0.272603 -0.268761
0.172322 -0.232415 -0.247687
0.233708 -0.179108 -0.188992
0.27138 -0.133906 -0.124836
0.276641 -0.115644 -0.0811923
0.25156 -0.139186 -0.0732373
0.203513 -0.203519 -0.0940741
0.145205 -0.293186 -0.120246
0.0873112 -0.385963 -0.123682
0.0333358 -0.457579 -0.0888635
-0.0165885 -0.492933 -0.0110792
-0.0615565 -0.484652 0.0941642
-0.100337 -0.44076 0.18923
-0.131673 -0.371936 0.253603
-0.152099 -0.292812 0.272348
-0.159127 -0.213107 0.243354
-0.0566971 -0.0664144 0.0451527
-0.0545764 -0.124575 0.00187908
-0.0332617 -0.195019 -0.0658195
0.00758938 -0.260131 -0.138358
0.0644331 -0.296813 -0.194273
0.130237 -0.291072 -0.21299
0.19421 -0.243433 -0.18895
0.247955 -0.171832 -0.142149
0.280946 -0.102551 -0.100123
0.287081 -0.0607152 -0.081461
0.270124 -0.0673501 -0.0910414
0.237969 -0.12459 -0.115002
0.201316 -0.216707 -0.128262
0.167779 -0.318295 -0.107132
0.137337 -0.401689 -0.0451397
0.106901 -0.447432 0.0527972
0.074742 -0.445996 0.165162
0.0401191 -0.407577 0.253915
0.00368201 -0.342984 0.300772
-0.0298031 -0.268863 0.297972
-0.0559143 -0.195014 0.25044
-0.0328877 -0.0413284 0.00777853
-0.0242012 -0.105015 -0.0328596
-9.36092e-05 -0.186378 -0.0846298
0.0373111 -0.263485 -0.130078
0.083932 -0.306999 -0.15388
0.132941 -0.300693 -0.146339
0.176865 -0.241424 -0.110173
0.211026 -0.149167 -0.0672472
0.230224 -0.0559891 -0.0411633
0.232005 0.00625072 -0.0444676
0.222108 0.0111371 -0.072572
0.208784 -0.0455483 -0.105486
0.199871 -0.146391 -0.116996
0.198948 -0.261053 -0.087544
0.201828 -0.357051 -0.0176678
0.201651 -0.409683 0.0802016
0.193071 -0.408159 0.181461
0.1725 -0.366178 0.252422
0.139318 -0.296407 0.278282
0.0989795 -0.220024 0.258644
0.0573384 -0.149815 0.204545
-0.0163807 -0.0207504 -0.05171
-0.00537607 -0.0875931 -0.0933426
0.0153841 -0.175275 -0.129738
0.0415947 -0.258869 -0.145653
0.0691942 -0.304645 -0.132114
0.0926975 -0.294832 -0.0905789
0.108776 -0.223392 -0.0341643
0.117016 -0.112554 0.0124123
0.117942 8.71428e-05 0.0286346
0.11299 0.0764636 0.00681751
0.109413 0.086083 -0.0402377
0.115068 0.0238052 -0.0872835
0.134455 -0.0901868 -0.10731
0.166881 -0.219607 -0.0843885
0.204342 -0.326385 -0.0235805
0.236866 -0.380473 0.057527
0.255739 -0.370895 0.13393
0.254818 -0.316189 0.180205
0.232209 -0.232488 0.186224
0.193475 -0.147469 0.158243
0.144986 -0.0793435 0.111599
-0.0193016 0.00116866 -0.134907
-0.0115022 -0.0646785 -0.181966
0.000371735 -0.152813 -0.205378
0.0104008 -0.237299 -0.192731
0.0150578 -0.282254 -0.141342
0.0110285 -0.268855 -0.062738
-0.00101148 -0.188688 0.0179501
-0.0176708 -0.0657996 0.0726221
-0.0336277 0.0581311 0.0832581
-0.0442114 0.140455 0.0463525
-0.0418679 0.148318 -0.0185971
-0.0203001 0.0766891 -0.0821348
0.0216391 -0.0511579 -0.116934
0.0795703 -0.193197 -0.110347
0.143069 -0.306185 -0.0696726
0.200887 -0.355573 -0.0155204
0.242428 -0.331276 0.0287459
0.260432 -0.257534 0.0485518
0.252374 -0.154867 0.0394734
0.223485 -0.0581515 0.0131133
0.179491 0.00828299 -0.0131512
-0.0396655 0.0296636 -0.228717
-0.0387817 -0.0296175 -0.28339
-0.0380954 -0.113057 -0.2964
-0.0443876 -0.194244 -0.258932
-0.0602675 -0.237506 -0.174363
-0.0865043 -0.223237 -0.0621713
-0.119345 -0.140737 0.0406223
-0.152835 -0.014778 0.102979
-0.178808 0.110974 0.109217
-0.190921 0.19157 0.0598007
-0.183043 0.193445 -0.0207627
-0.151735 0.112235 -0.100164
-0.0988102 -0.0261782 -0.151535
-0.0310175 -0.175367 -0.165433
0.04105 -0.288367 -0.149581
0.107503 -0.327585 -0.125861
0.158274 -0.284598 -0.114696
0.18725 -0.189778 -0.118645
0.192478 -0.0681677 -0.136209
0.178573 0.0392397 -0.15235
0.14963 0.101625 -0.149591
-0.0645028 0.0652278 -0.311588
-0.0705236 0.0171366 -0.372497
-0.0792834 -0.0575919 -0.37698
-0.0971517 -0.133482 -0.320497
-0.125754 -0.175728 -0.211797
-0.163852 -0.16438 -0.0757675
-0.206274 -0.0865145 0.0410465
-0.245625 0.034157 0.106107
-0.273119 0.154283 0.106398
-0.282613 0.228943 0.0463202
-0.270837 0.225004 -0.0462055
-0.237992 0.138675 -0.137633
-0.188088 -0.00291178 -0.202598
-0.128584 -0.151215 -0.234993
-0.0679281 -0.257687 -0.242099
-0.0121802 -0.283526 -0.245773
0.0319137 -0.222679 -0.263015
0.060949 -0.110812 -0.285786
0.0744612 0.0237638 -0.306361
0.0766413 0.135017 -0.307153
0.0690874 0.188189 -0.273084
-0.0726754 0.103585 -0.357618
-0.0807102 0.0694884 -0.418028
-0.0922768 0.00537364 -0.413417
-0.113297 -0.0651235 -0.343354
-0.144421 -0.10897 -0.221285
-0.182548 -0.104837 -0.0753236
-0.221946 -0.0372097 0.0430028
-0.256183 0.072069 0.101905
-0.277246 0.182321 0.0917895
-0.281102 0.250605 0.0210264
-0.268415 0.244894 -0.0802941
-0.243078 0.16136 -0.17895
-0.210353 0.0265504 -0.252206
-0.176812 -0.111573 -0.297636
-0.146643 -0.205418 -0.322063
-0.119692 -0.217424 -0.346829
-0.098676 -0.142738 -0.385992
-0.0820867 -0.0212995 -0.422541
-0.0677711 0.115083 -0.44267
-0.0527709 0.219941 -0.427984
-0.03838 0.258075 -0.366126
-0.0498934 0.140906 -0.349512
-0.0523462 0.121534 -0.399485
-0.0581783 0.0684185 -0.383725
-0.072848 0.00278894 -0.305041
-0.0960463 -0.0444312 -0.180586
-0.123802 -0.0504881 -0.0400013
-0.15044 0.00271687 0.0661756
-0.171081 0.0969935 0.109503
-0.180569 0.195252 0.0844648
-0.177924 0.258434 0.00305516
-0.16794 0.25607 -0.103718
-0.157608 0.183625 -0.204534
-0.152553 0.0651928 -0.280317
-0.157195 -0.0545986 -0.332507
-0.169859 -0.132108 -0.36784
-0.184428 -0.131742 -0.407068
-0.197922 -0.0499342 -0.461451
-0.203563 0.0709146 -0.506991
-0.196465 0.197008 -0.525977
-0.174588 0.285114 -0.499456
-0.143081 0.303809 -0.418607
-0.00439944 0.171428 -0.290986
0.00402315 0.16561 -0.32356
0.00913812 0.123024 -0.296943
0.00617513 0.0621821 -0.215691
-0.00378979 0.0114068 -0.099207
-0.0168862 -0.00555537 0.0231165
-0.0277681 0.0315984 0.107246
-0.0325156 0.109347 0.130194
-0.0294095 0.195229 0.0904865
-0.0206953 0.255218 0.00231738
-0.0146347 0.260784 -0.104191
-0.0203692 0.206158 -0.20126
-0.0434094 0.11144 -0.274074
-0.0856621 0.0155436 -0.327035
-0.139858 -0.0438948 -0.367476
-0.194955 -0.0348496 -0.414172
-0.242623 0.0454853 -0.475149
-0.271945 0.154547 -0.523961
-0.275602 0.25952 -0.540878
-0.252911 0.323257 -0.508972
-0.212269 0.320761 -0.422006
0.0471977 0.188084 -0.204094
0.0687586 0.192705 -0.216797
0.0870348 0.159371 -0.181669
0.0980235 0.103998 -0.104007
0.102709 0.0515402 -0.00259909
0.104344 0.0256229 0.0940077
0.107686 0.0479587 0.151918
0.115165 0.109851 0.154518
0.127256 0.184234 0.103921
0.139012 0.242542 0.0149924
0.140182 0.258563 -0.0845656
0.120801 0.225102 -0.171553
0.0757788 0.157381 -0.23545
0.00527351 0.0871462 -0.282915
-0.0800038 0.0450913 -0.322014
-0.164524 0.0582046 -0.368474
-0.237112 0.129187 -0.42846
-0.284386 0.218298 -0.476233
-0.298173 0.295598 -0.493345
-0.27872 0.331859 -0.463035
-0.236203 0.309501 -0.381519
0.0873961 0.186485 -0.114362
0.118895 0.196942 -0.109758
0.147319 0.17131 -0.0704617
0.168996 0.12263 -0.00146118
0.184435 0.0717178 0.0803106
0.195853 0.0408074 0.149671
0.207382 0.051685 0.183226
0.220444 0.0996981 0.170296
0.235521 0.163743 0.115394
0.246873 0.220525 0.0327784
0.243812 0.24664 -0.0537448
0.216799 0.233803 -0.125951
0.161276 0.192288 -0.177043
0.0781992 0.14622 -0.215074
-0.019518 0.118915 -0.247748
-0.115232 0.132235 -0.288166
-0.196487 0.188546 -0.340957
-0.250329 0.253319 -0.384678
-0.269457 0.301643 -0.40176
-0.254954 0.312663 -0.377518
-0.216963 0.275846 -0.3098
0.10125 0.166161 -0.0435189
0.135436 0.178332 -0.0290513
0.167022 0.159374 0.0079513
0.192666 0.118648 0.063064
0.211938 0.0724788 0.122595
0.22655 0.041009 0.167228
0.239752 0.0447813 0.182515
0.252747 0.0822512 0.162394
0.265911 0.137291 0.112126
0.274153 0.191188 0.0439913
0.268689 0.223944 -0.0235039
0.241391 0.226945 -0.0772717
0.188083 0.20638 -0.113434
0.110662 0.179712 -0.139965
0.0211244 0.163434 -0.163592
-0.065368 0.174515 -0.193994
-0.138195 0.21563 -0.234696
-0.186568 0.258189 -0.270497
-0.204704 0.282171 -0.286097
-0.195076 0.27484 -0.269747
-0.166653 0.230953 -0.221117
0.051782 -0.26298 -0.0147093
0.0645242 -0.352291 -0.0638123
0.0779593 -0.409708 -0.133599
0.0841644 -0.417626 -0.206576
0.0773394 -0.372935 -0.254304
0.0538682 -0.281047 -0.253435
0.013351 -0.169377 -0.190487
-0.0417978 -0.0606787 -0.0747258
-0.104871 0.0225174 0.0657553
-0.164713 0.0583675 0.195873
-0.208835 0.0421385 0.278723
-0.226308 -0.0203358 0.292649
-0.211919 -0.112736 0.236783
-0.165762 -0.212369 0.129937
-0.0932854 -0.294797 0.00479858
-0.0061041 -0.341518 -0.105174
0.081344 -0.346298 -0.176874
0.154133 -0.311669 -0.20149
0.201927 -0.25239 -0.187213
0.219977 -0.182869 -0.147785
0.208239 -0.116489 -0.0981886
0.0891009 -0.296947 0.0125681
0.100844 -0.391245 -0.0441851
0.108299 -0.447355 -0.132372
0.104522 -0.448443 -0.227743
0.0860391 -0.393823 -0.294049
0.0510275 -0.290085 -0.299074
0.000299861 -0.168322 -0.223424
-0.0622174 -0.0545206 -0.0789554
-0.130195 0.0269781 0.096546
-0.193856 0.0536612 0.257022
-0.240874 0.0224187 0.355303
-0.259602 -0.0586488 0.364465
-0.244957 -0.170157 0.284991
-0.196221 -0.286089 0.142947
-0.118913 -0.378702 -0.0190751
-0.0251063 -0.427447 -0.158385
0.0694526 -0.426662 -0.246337
0.148419 -0.379161 -0.273207
0.200225 -0.301549 -0.250253
0.219724 -0.212177 -0.196007
0.207891 -0.128529 -0.130048
0.1153 -0.313231 0.0486909
0.122713 -0.404026 -0.0114652
0.121895 -0.453328 -0.112246
0.108172 -0.447007 -0.224505
0.0807691 -0.386765 -0.305899
0.040767 -0.279684 -0.317309
-0.0099691 -0.158476 -0.234457
-0.0679858 -0.0499858 -0.0723152
-0.129326 0.0216376 0.124081
-0.188151 0.0355565 0.299991
-0.233746 -0.0101396 0.401645
-0.255404 -0.105766 0.399998
-0.247739 -0.230223 0.298489
-0.209345 -0.355982 0.130057
-0.143652 -0.453989 -0.0554416
-0.0612983 -0.502538 -0.209227
0.023469 -0.496436 -0.300602
0.0956807 -0.438324 -0.321495
0.144431 -0.345508 -0.286568
0.164781 -0.238913 -0.219074
0.158245 -0.140158 -0.141866
0.117093 -0.305194 0.0831282
0.117226 -0.38534 0.0215583
0.108225 -0.425133 -0.0878051
0.0891653 -0.414031 -0.211126
0.0616936 -0.355356 -0.304135
0.0282076 -0.255139 -0.322026
-0.00989055 -0.144392 -0.2379
-0.0504341 -0.0492138 -0.0695831
-0.0945795 0.00807181 0.132903
-0.141179 0.00918637 0.309885
-0.182696 -0.0472442 0.405025
-0.210204 -0.151109 0.39048
-0.217531 -0.281152 0.273953
-0.201005 -0.410097 0.0939928
-0.162079 -0.508831 -0.0954649
-0.107364 -0.556487 -0.243979
-0.0474284 -0.54799 -0.322469
0.0062139 -0.484835 -0.327987
0.045022 -0.383552 -0.278839
0.0649786 -0.266357 -0.20226
0.0667437 -0.157302 -0.122613
0.0910066 -0.270791 0.107794
0.0831573 -0.33646 0.045475
0.0686309 -0.367746 -0.0684654
0.0508098 -0.357564 -0.198508
0.0323241 -0.309615 -0.298487
0.0166332 -0.226151 -0.323032
0.00222289 -0.133867 -0.244295
-0.0115269 -0.0560338 -0.0824485
-0.0307505 -0.0130032 0.110421
-0.0598727 -0.0204925 0.274415
-0.0952538 -0.080807 0.355323
-0.130233 -0.184983 0.329801
-0.157456 -0.313121 0.210462
-0.170286 -0.439612 0.0391803
-0.167091 -0.536083 -0.130565
-0.150318 -0.584078 -0.251454
-0.125266 -0.577598 -0.300466
-0.0984859 -0.516331 -0.28265
-0.0750589 -0.415229 -0.219375
-0.0578697 -0.295862 -0.140096