# vtk DataFile Version 2.0
Func
ASCII
DATASET RECTILINEAR_GRID
DIMENSIONS 21 21 21
X_COORDINATES 21 double
-4.7619
-4.28571
-3.80952
-3.33333
-2.85714
-2.38095
-1.90476
-1.42857
-0.952381
-0.47619
0
0.47619
0.952381
1.42857
1.90476
2.38095
2.85714
3.33333
3.80952
4.28571
4.7619
Y_COORDINATES 21 double
-4.7619
-4.28571
-3.80952
-3.33333
-2.85714
-2.38095
-1.90476
-1.42857
-0.952381
-0.47619
0
0.47619
0.952381
1.42857
1.90476
2.38095
2.85714
3.33333
3.80952
4.28571
4.7619
Z_COORDINATES 21 double
-4.7619
-4.28571
-3.80952
-3.33333
-2.85714
-2.38095
-1.90476
-1.42857
-0.952381
-0.47619
0
0.47619
0.952381
1.42857
1.90476
2.38095
2.85714
3.33333
3.80952
4.28571
4.7619
POINT_DATA 9261
SCALARS data double 3
LOOKUP_TABLE default
-0.098246 -0.119706 -0.0984734
-0.0886476 -0.15568 -0.0853098
-0.0627083 -0.175961 -0.0395007
-0.0254025 -0.175056 0.0352923
0.0183219 -0.150939 0.129265
0.0625655 -0.107067 0.2283
0.10192 -0.0532515 0.313191
0.131004 0.000910176 0.368662
0.146339 0.0476364 0.386605
0.146441 0.0811063 0.365389
0.129604 0.102034 0.311569
0.0957368 0.11355 0.23601
0.0479248 0.119429 0.152357
-0.00851416 0.123621 0.074534
-0.0687336 0.125829 0.015095
-0.126371 0.125828 -0.0159043
-0.176773 0.121276 -0.0191502
-0.215609 0.112756 -0.00285672
-0.23885 0.10111 0.0246579
-0.243647 0.0855851 0.0528158
-0.230106 0.0672289 0.0698178
-0.108763 -0.115545 -0.123336
-0.101932 -0.15625 -0.108118
-0.0791342 -0.182707 -0.0545826
-0.0452169 -0.187885 0.031581
-0.00462983 -0.16958 0.138259
0.0374482 -0.130799 0.249583
0.0760732 -0.0818593 0.34224
0.106324 -0.0315135 0.399181
0.124534 0.0132879 0.411745
0.128551 0.047669 0.379751
0.115361 0.0738483 0.311676
0.0829212 0.0956093 0.220494
0.0335614 0.115725 0.121502
-0.0280617 0.135588 0.0294401
-0.0964459 0.15041 -0.0407491
-0.163272 0.155461 -0.0786004
-0.222484 0.147136 -0.0841901
-0.267476 0.127721 -0.0655756
-0.292916 0.101895 -0.0287347
-0.295364 0.0729959 0.0133178
-0.275185 0.046701 0.0463154
-0.098628 -0.0997258 -0.134543
-0.0963332 -0.1403 -0.121703
-0.08224 -0.169181 -0.0695123
-0.0605363 -0.17857 0.0145505
-0.0341117 -0.166891 0.117757
-0.00550894 -0.136588 0.224255
0.0227144 -0.0982977 0.309293
0.0469745 -0.0593847 0.35644
0.0643548 -0.0244561 0.358687
0.0725492 0.00487837 0.317567
0.0666718 0.0333964 0.243029
0.0425166 0.0660226 0.148595
0.000230736 0.103995 0.0487629
-0.0562384 0.144034 -0.0436251
-0.121952 0.176021 -0.114622
-0.18776 0.188745 -0.153771
-0.245988 0.176373 -0.161476
-0.288904 0.14315 -0.143375
-0.310721 0.0989934 -0.101378
-0.308669 0.0533799 -0.0483118
-0.283713 0.0177295 -9.05037e-05
-0.0663743 -0.0805212 -0.129503
-0.0690256 -0.116116 -0.122679
-0.0667988 -0.142016 -0.0808695
-0.0626772 -0.150237 -0.0111082
-0.0574845 -0.141293 0.0748192
-0.0507237 -0.118453 0.161017
-0.0414182 -0.0930097 0.225196
-0.0301629 -0.0703734 0.25338
-0.0183658 -0.0518924 0.242027
-0.00869114 -0.0343383 0.194186
-0.00698794 -0.00903792 0.121059
-0.019239 0.030923 0.0354313
-0.0478325 0.0854573 -0.050946
-0.0907619 0.14609 -0.129129
-0.143172 0.196344 -0.189264
-0.196028 0.217993 -0.223272
-0.242524 0.202786 -0.231342
-0.27495 0.156401 -0.214423
-0.288262 0.0942492 -0.17183
-0.280135 0.0317052 -0.114564
-0.253185 -0.0130258 -0.0558555
-0.018011 -0.0650978 -0.105607
-0.024606 -0.0913167 -0.107007
-0.0343595 -0.107857 -0.0820382
-0.0489214 -0.107764 -0.0354035
-0.0668842 -0.095126 0.0232258
-0.0846559 -0.0753738 0.0783151
-0.0974464 -0.0615689 0.112845
-0.102458 -0.057218 0.117726
-0.0994865 -0.0597133 0.0925317
-0.0911177 -0.060108 0.0419393
-0.0833766 -0.0446894 -0.0217856
-0.0833165 -0.00365486 -0.0874055
-0.0956443 0.0622589 -0.147176
-0.120593 0.139828 -0.197593
-0.154054 0.206027 -0.23512
-0.187494 0.236702 -0.257278
-0.215266 0.220013 -0.264558
-0.231925 0.163639 -0.251743
-0.233344 0.0866018 -0.216138
-0.218889 0.0104997 -0.164509
-0.19257 -0.0408968 -0.104834
0.0371131 -0.0594065 -0.0693488
0.0297333 -0.0734856 -0.0770389
0.0122694 -0.0748018 -0.0684581
-0.0162162 -0.0596496 -0.0464
-0.0524492 -0.0358662 -0.0177127
-0.0909193 -0.0130832 0.00386264
-0.12378 -0.00658317 0.00765924
-0.145336 -0.0188142 -0.0108003
-0.153372 -0.0433794 -0.0488604
-0.150061 -0.0655483 -0.0996672
-0.140663 -0.0660949 -0.149804
-0.132118 -0.0316976 -0.189475
-0.130544 0.0372268 -0.215097
-0.137994 0.123978 -0.229482
-0.151478 0.200527 -0.236375
-0.163776 0.23741 -0.240483
-0.17152 0.220177 -0.244493
-0.171373 0.157528 -0.23892
-0.161334 0.0715429 -0.217136
-0.142011 -0.0114472 -0.180157
-0.118541 -0.0649665 -0.129712
0.0813902 -0.0646766 -0.0352595
0.0773776 -0.0668114 -0.0465599
0.0598242 -0.0506486 -0.0496553
0.0275793 -0.0170401 -0.0449315
-0.015459 0.0223709 -0.0372534
-0.0635038 0.0530623 -0.0385812
-0.10721 0.0578413 -0.0552803
-0.139362 0.0340693 -0.0888483
-0.156738 -0.00937604 -0.134472
-0.160842 -0.0528472 -0.18356
-0.155488 -0.0722191 -0.221103
-0.146321 -0.0507678 -0.237475
-0.139359 0.0122253 -0.231584
-0.137365 0.0983683 -0.211206
-0.138186 0.177271 -0.187011
-0.135846 0.215525 -0.17057
-0.128743 0.196879 -0.168125
-0.116208 0.132044 -0.169825
-0.097892 0.0437838 -0.165246
-0.0758836 -0.0380188 -0.149533
-0.0560342 -0.0877631 -0.118115
0.0970992 -0.0782563 -0.0187001
0.0993411 -0.0708941 -0.0327436
0.0892551 -0.0392152 -0.0420969
0.0651178 0.0119093 -0.0449605
0.0297318 0.067936 -0.0444636
-0.012781 0.109576 -0.0519535
-0.0538233 0.118519 -0.0727509
-0.0871354 0.0903555 -0.108065
-0.109334 0.0352763 -0.152706
-0.121321 -0.0244171 -0.197396
-0.124997 -0.0614841 -0.225319
-0.123632 -0.0568021 -0.225374
-0.121413 -0.00810374 -0.196404
-0.120348 0.0665161 -0.148616
-0.118435 0.137096 -0.0978498
-0.110902 0.169877 -0.0612802
-0.0972073 0.147527 -0.0495363
-0.0786152 0.0829938 -0.0558007
-0.0566648 -0.000730138 -0.0686148
-0.0340515 -0.0734739 -0.0770874
-0.0175533 -0.112614 -0.0709885
0.0733325 -0.0927686 -0.0297418
0.0817004 -0.0807972 -0.0481407
0.0836538 -0.0404203 -0.0601243
0.0766548 0.0211689 -0.0619395
0.0611847 0.0882196 -0.056095
0.0381215 0.139109 -0.0533853
0.0126728 0.155596 -0.0614356
-0.0115414 0.131286 -0.0842482
-0.0323144 0.0757299 -0.11868
-0.0501371 0.0106566 -0.156145
-0.0648838 -0.0366902 -0.178367
-0.0767932 -0.0469341 -0.171338
-0.0868395 -0.016702 -0.131154
-0.0949888 0.037742 -0.0674337
-0.0986952 0.0896524 0.00168532
-0.093919 0.108127 0.0551909
-0.080832 0.0775291 0.0777321
-0.06201 0.0134517 0.0709486
-0.0401734 -0.0618279 0.0456427
-0.0183045 -0.12038 0.015974
-0.00409836 -0.143678 -0.00404383
0.00910551 -0.0976625 -0.069768
0.0199977 -0.0871137 -0.0947738
0.0346031 -0.0483193 -0.107352
0.0490381 0.0111154 -0.102332
0.0606383 0.0773529 -0.0820039
0.0663917 0.130292 -0.0559546
0.0663317 0.154133 -0.0375502
0.0599937 0.140936 -0.0363958
0.0471602 0.0976669 -0.0535821
0.0274809 0.0418488 -0.082657
0.00281234 -0.00322902 -0.104607
-0.023939 -0.0209914 -0.101556
-0.0497534 -0.00826405 -0.0645215
-0.0716481 0.0212876 0.000543057
-0.0859935 0.0464132 0.0765283
-0.0889961 0.0420421 0.140931
-0.0811472 -0.00309162 0.174134
-0.0657903 -0.0698976 0.17125
-0.046393 -0.136784 0.141184
-0.0259622 -0.179081 0.0989853
-0.011928 -0.183426 0.0599519
-0.0814073 -0.084474 -0.127742
-0.0726526 -0.0805377 -0.16183
-0.0487382 -0.0547745 -0.175873
-0.0147771 -0.0120039 -0.163434
0.0233594 0.0389657 -0.126467
0.0590885 0.0839211 -0.0724727
0.0867478 0.112214 -0.0219378
0.101435 0.115504 0.00836521
0.0998991 0.0965167 0.0114771
0.081854 0.0651835 -0.00960201
0.0505855 0.0367341 -0.0363157
0.0118766 0.0216435 -0.0469459
-0.027287 0.0211451 -0.0261939
-0.0608652 0.0243943 0.0261045
-0.0840835 0.017277 0.0970263
-0.0933682 -0.0168841 0.164968
-0.0896398 -0.0825247 0.207327
-0.0769817 -0.15623 0.213241
-0.0593835 -0.217008 0.188125
-0.0399061 -0.243997 0.145456
-0.0251872 -0.228766 0.0996111
-0.173804 -0.0487633 -0.1821
-0.171451 -0.0549777 -0.225282
-0.144131 -0.0519844 -0.2427
-0.0977557 -0.038966 -0.226623
-0.0406999 -0.0170523 -0.178006
0.0180883 0.00943344 -0.101125
0.0680712 0.0374927 -0.0223224
0.100726 0.0598705 0.0346627
0.109968 0.0740032 0.0563364
0.0956419 0.0797189 0.0412869
0.0621665 0.0807822 0.00611206
0.017626 0.0786967 -0.0246791
-0.0278358 0.0710044 -0.0295857
-0.0657731 0.049444 -0.0011164
-0.0907179 0.00789938 0.0543026
-0.0997922 -0.0601651 0.11808
-0.0948449 -0.150518 0.166441
-0.0810657 -0.234866 0.184494
-0.0629219 -0.29273 0.172939
-0.0437048 -0.307102 0.141741
-0.0287914 -0.274074 0.102722
-0.238489 0.0078932 -0.207777
-0.244497 -0.00940995 -0.256172
-0.220061 -0.0347593 -0.278239
-0.171258 -0.0599226 -0.264882
-0.107617 -0.0767562 -0.215068
-0.0386909 -0.0771002 -0.12871
0.0221095 -0.0545491 -0.0340964
0.0644153 -0.0137756 0.0400822
0.0802966 0.0370775 0.0743493
0.0698059 0.0867461 0.0625356
0.0382418 0.125597 0.017698
-0.00479407 0.14444 -0.0348151
-0.0474039 0.135816 -0.0687828
-0.0799955 0.093469 -0.0696735
-0.0972469 0.0192135 -0.0365233
-0.097738 -0.0828179 0.0165298
-0.0848969 -0.198927 0.0665483
-0.065509 -0.295911 0.0971946
-0.0445363 -0.353825 0.103949
-0.0256373 -0.359143 0.092309
-0.012579 -0.312061 0.0707275
-0.249183 0.0765318 -0.184869
-0.261721 0.0496102 -0.231223
-0.2446 -0.00432399 -0.257686
-0.203227 -0.0693697 -0.253513
-0.146586 -0.128066 -0.214919
-0.0829252 -0.159127 -0.136941
-0.0257528 -0.146214 -0.0440459
0.0150834 -0.0902966 0.0335762
0.0312551 -0.00464644 0.0721564
0.0230374 0.0890513 0.061245
-0.00365468 0.167687 0.0090367
-0.0386212 0.211146 -0.0608135
-0.0699828 0.206451 -0.120004
-0.0885845 0.148715 -0.148733
-0.0903336 0.0468723 -0.139353
-0.0759595 -0.0849166 -0.101006
-0.0508682 -0.223977 -0.0540554
-0.0236337 -0.332831 -0.0139974
0.000386844 -0.392224 0.010044
0.0173076 -0.391756 0.0193943
0.0251483 -0.335255 0.0191254
-0.196934 0.14006 -0.111507
-0.211739 0.106216 -0.147606
-0.203467 0.0291021 -0.176286
-0.176484 -0.0691969 -0.18608
-0.137521 -0.163508 -0.169338
-0.0920793 -0.221923 -0.115892
-0.051031 -0.219675 -0.0415421
-0.0215478 -0.153218 0.0257538
-0.01091 -0.0397487 0.0604914
-0.0187546 0.0907776 0.0491424
-0.0388995 0.20374 -0.00547901
-0.0615238 0.269564 -0.0836956
-0.0764731 0.270299 -0.158201
-0.0765527 0.202055 -0.206755
-0.0598416 0.079646 -0.217058
-0.0295916 -0.0743275 -0.193753
0.00696988 -0.229761 -0.153625
0.0400189 -0.346347 -0.109739
0.0641891 -0.406037 -0.0743865
0.0758618 -0.401226 -0.0492491
0.0749454 -0.339244 -0.0317213
-0.0866043 0.181172 0.000466522
-0.0971642 0.144505 -0.0177395
-0.0958674 0.0539636 -0.0460602
-0.0856136 -0.0651614 -0.0718558
-0.0699619 -0.182691 -0.083884
-0.0503888 -0.259688 -0.0668541
-0.0332491 -0.265077 -0.0237785
-0.0214648 -0.192865 0.0229541
-0.0200754 -0.0618256 0.0485078
-0.0289263 0.092873 0.0379444
-0.0421272 0.228634 -0.0112379
-0.0511729 0.309316 -0.0851254
-0.0489878 0.313574 -0.16041
-0.0314785 0.238539 -0.215753
0.000529855 0.103488 -0.237097
0.0414328 -0.0627145 -0.225702
0.0831538 -0.22523 -0.1945
0.115644 -0.342819 -0.15382
0.134176 -0.398929 -0.117057
0.136277 -0.389008 -0.0867252
0.123563 -0.324338 -0.0614499
0.0582955 0.192774 0.127331
0.0581403 0.156806 0.130613
0.0568073 0.0640771 0.105679
0.052623 -0.0614649 0.064868
0.0458079 -0.187021 0.023455
0.0386299 -0.271554 3.75181e-05
0.0304768 -0.280639 0.00631094
0.0229632 -0.206521 0.0278101
0.0139794 -0.0691475 0.0425083
0.00323065 0.094986 0.035705
-0.00415252 0.239507 0.000245654
-0.00164248 0.325259 -0.0566357
0.0141258 0.329561 -0.1179
0.0437208 0.250768 -0.166139
0.0834933 0.111201 -0.188453
0.126271 -0.0568536 -0.184055
0.164247 -0.21649 -0.162389
0.188418 -0.327732 -0.131716
0.19536 -0.37581 -0.10392
0.184529 -0.359709 -0.080471
0.159008 -0.294179 -0.0598251
0.192525 0.174756 0.231401
0.2052 0.142664 0.252557
0.205007 0.0581226 0.232537
0.1914 -0.0595566 0.183293
0.167732 -0.178416 0.121111
0.138907 -0.259112 0.0656597
0.109539 -0.267717 0.0397703
0.0861384 -0.19569 0.0376794
0.0689315 -0.0629691 0.0422322
0.0573016 0.0958903 0.0401542
0.0552995 0.235 0.0216483
0.0669395 0.315813 -0.0119676
0.091733 0.316453 -0.050507
0.12679 0.236696 -0.0822719
0.166036 0.100268 -0.0974324
0.201799 -0.0597572 -0.0946648
0.227795 -0.207214 -0.0808929
0.237527 -0.305389 -0.0630629
0.229478 -0.341956 -0.0498935
0.205473 -0.3192 -0.0402409
0.169562 -0.254374 -0.0322035
0.285033 0.131752 0.286881
0.310344 0.105017 0.320501
0.314736 0.0356992 0.306814
0.298193 -0.0625831 0.255796
0.265165 -0.161982 0.185372
0.222705 -0.228961 0.112196
0.179001 -0.233022 0.0653894
0.143191 -0.166706 0.0454178
0.119693 -0.0477171 0.0415609
0.107662 0.0935034 0.043394
0.1099 0.215339 0.0406492
0.12784 0.282998 0.0306517
0.157565 0.277238 0.0175619
0.193155 0.19925 0.00707721
0.22676 0.072514 0.00473129
0.250812 -0.0714147 0.0107344
0.261308 -0.199515 0.0197398
0.254999 -0.28006 0.0253777
0.232676 -0.303297 0.0232494
0.198365 -0.274209 0.0164697
0.156483 -0.211242 0.00798309
0.317651 0.0766806 0.286008
0.350302 0.0555108 0.324123
0.359347 0.00461948 0.316962
0.344043 -0.0681666 0.270967
0.309163 -0.14154 0.202485
0.262335 -0.189383 0.127169
0.213528 -0.187123 0.0726301
0.172754 -0.12932 0.0435893
0.146791 -0.0298647 0.0344981
0.136187 0.0859966 0.0389676
0.142008 0.183421 0.0477039
0.163418 0.233475 0.0562254
0.194063 0.220679 0.0644904
0.226155 0.147402 0.0733774
0.250951 0.0354488 0.0840547
0.261955 -0.0870514 0.0951526
0.257363 -0.191798 0.102206
0.237333 -0.252953 0.0995564
0.2051 -0.263457 0.0857138
0.166186 -0.229951 0.0655565
0.124308 -0.170476 0.0431729
0.288098 0.0253558 0.234837
0.32077 0.00925739 0.269825
0.332193 -0.0235874 0.26888
0.320726 -0.0709727 0.234
0.289823 -0.117969 0.177736
0.247357 -0.146165 0.114163
0.202259 -0.137706 0.0645862
0.164256 -0.0894669 0.0348648
0.140183 -0.0118817 0.0233156
0.131642 0.0756241 0.02757
0.139536 0.146476 0.0406372
0.161135 0.178553 0.0583254
0.189312 0.16047 0.0785799
0.215768 0.0952884 0.0993898
0.232368 0.00174687 0.118663
0.233598 -0.0968034 0.133692
0.21969 -0.177772 0.140593
0.192959 -0.221147 0.134743
0.158079 -0.221908 0.116135
0.121114 -0.18747 0.0902352
0.0848185 -0.133835 0.061696
-0.153691 -0.14001 -0.0960155
-0.155312 -0.177979 -0.0849043
-0.136234 -0.197083 -0.0408613
-0.0999244 -0.190527 0.0324912
-0.050291 -0.156535 0.125767
0.00669533 -0.0976431 0.225632
0.0640559 -0.0259936 0.313652
0.114286 0.0457396 0.37481
0.150893 0.107228 0.400162
0.16906 0.15078 0.386207
0.164157 0.17672 0.338393
0.13352 0.189386 0.266303
0.080069 0.19473 0.182792
0.00974335 0.199183 0.101695
-0.0705084 0.203122 0.0360709
-0.151769 0.206856 -0.00287911
-0.225815 0.206894 -0.0138821
-0.284528 0.200386 -0.00373323
-0.320891 0.186913 0.0196193
-0.33019 0.164241 0.0455505
-0.312232 0.133185 0.0610125
-0.17178 -0.132542 -0.123327
-0.180977 -0.176075 -0.11292
-0.170333 -0.201776 -0.0636526
-0.141967 -0.200928 0.0190522
-0.0981361 -0.17134 0.12396
-0.0438829 -0.115762 0.235909
0.0144691 -0.0474399 0.332678
0.0695941 0.0216083 0.39741
0.114358 0.0819453 0.420542
0.142165 0.126905 0.399463
0.146093 0.158632 0.340919
0.120246 0.182548 0.256055
0.0664655 0.203835 0.158946
-0.0105302 0.226281 0.0639169
-0.102612 0.244812 -0.0134534
-0.198118 0.254574 -0.0610955
-0.285995 0.250433 -0.0767126
-0.354655 0.231233 -0.0664044
-0.394571 0.19999 -0.0356428
-0.400388 0.159519 0.00286265
-0.372887 0.115809 0.0337098
-0.159897 -0.1107 -0.135953
-0.176312 -0.154172 -0.130229
-0.1785 -0.182116 -0.0849209
-0.167139 -0.184855 -0.00703041
-0.142171 -0.161015 0.0918492
-0.105349 -0.113414 0.197032
-0.0598173 -0.05614 0.285161
-0.0112843 6.02611e-05 0.340378
0.0337535 0.0484648 0.354696
0.0683023 0.0862914 0.327054
0.0826182 0.119095 0.265148
0.0679087 0.154097 0.18015
0.0231763 0.1951 0.0848099
-0.0475376 0.24074 -0.00894894
-0.137012 0.279527 -0.086545
-0.231973 0.298519 -0.136045
-0.31931 0.289912 -0.154998
-0.385842 0.254688 -0.146687
-0.421326 0.201007 -0.111938
-0.421062 0.139009 -0.0628502
-0.387049 0.081839 -0.0164496
-0.116982 -0.0843973 -0.130167
-0.138716 -0.121489 -0.131453
-0.154884 -0.144722 -0.0983631
-0.165076 -0.14471 -0.0375387
-0.166624 -0.122689 0.0408196
-0.157405 -0.0830792 0.122465
-0.13629 -0.0414718 0.18717
-0.105084 -0.0060813 0.221863
-0.0684156 0.0203684 0.222238
-0.0336712 0.0412867 0.188736
-0.0117566 0.0675018 0.130143
-0.0133239 0.109088 0.0565385
-0.0423912 0.168535 -0.0225474
-0.0970406 0.238361 -0.099497
-0.169895 0.298967 -0.164368
-0.248213 0.329004 -0.207822
-0.319952 0.317354 -0.227249
-0.37235 0.266825 -0.220785
-0.396431 0.191304 -0.185824
-0.38815 0.10853 -0.132378
-0.35135 0.0400096 -0.0746291
-0.0507527 -0.0629735 -0.102237
-0.0740863 -0.0876332 -0.110588
-0.101547 -0.0982434 -0.0944815
-0.132173 -0.08731 -0.0583231
-0.161025 -0.0606222 -0.0102179
-0.182273 -0.02561 0.0367598
-0.190211 -0.000529164 0.0681271
-0.18233 0.00905537 0.076134
-0.161032 0.00591555 0.0598721
-0.133025 0.0010509 0.0217957
-0.108835 0.0121352 -0.0278973
-0.0994959 0.0531387 -0.0806286
-0.111432 0.12576 -0.131072
-0.144989 0.216469 -0.177332
-0.193687 0.297015 -0.216458
-0.245757 0.338702 -0.245493
-0.291571 0.325795 -0.262466
-0.32174 0.263551 -0.259347
-0.329423 0.170434 -0.230925
-0.312613 0.0719127 -0.182721
-0.27646 -0.00287628 -0.123105
0.0265145 -0.0550016 -0.0592044
0.00623528 -0.0639304 -0.0713255
-0.026392 -0.0551005 -0.0702761
-0.0707027 -0.0255086 -0.0586954
-0.120256 0.0138937 -0.0420264
-0.167045 0.0504923 -0.0313767
-0.201844 0.062899 -0.0343254
-0.218612 0.0473905 -0.0538725
-0.216857 0.0122455 -0.0876417
-0.201958 -0.0235647 -0.130149
-0.182634 -0.0348495 -0.169203
-0.168515 -0.00303855 -0.197064
-0.167057 0.0737204 -0.212332
-0.180142 0.17704 -0.219684
-0.202632 0.271626 -0.224015
-0.224989 0.322107 -0.230777
-0.24148 0.309083 -0.241329
-0.246536 0.239717 -0.243532
-0.236955 0.13638 -0.228163
-0.212728 0.0306581 -0.194442
-0.179829 -0.0437984 -0.144073
0.0900388 -0.0630701 -0.0176653
0.0776149 -0.0567354 -0.0303133
0.0490986 -0.0258348 -0.0384631
0.00371916 0.0262757 -0.0425132
-0.0519285 0.0834613 -0.046322
-0.109859 0.127128 -0.059519
-0.159419 0.133184 -0.0853929
-0.192692 0.0985768 -0.124173
-0.207847 0.0352175 -0.170981
-0.208699 -0.0306995 -0.217632
-0.201304 -0.0671944 -0.249012
-0.192446 -0.0512892 -0.25638
-0.188639 0.0198546 -0.240156
-0.191802 0.124929 -0.210102
-0.19773 0.224942 -0.178816
-0.19856 0.278724 -0.159812
-0.191966 0.264619 -0.159639
-0.176922 0.192948 -0.166596
-0.153438 0.0874448 -0.167711
-0.124032 -0.0156573 -0.155994
-0.0949947 -0.0824937 -0.125882
0.117303 -0.0847886 0.00435307
0.115184 -0.0669323 -0.00859742
0.0989264 -0.0168123 -0.0201426
0.0665088 0.0566235 -0.0287029
0.0225478 0.132943 -0.0368977
-0.0273932 0.187718 -0.0547221
-0.0738761 0.195491 -0.0851714
-0.110529 0.151516 -0.128576
-0.135336 0.06994 -0.179542
-0.150999 -0.0186414 -0.228255
-0.160486 -0.0777139 -0.256133
-0.166678 -0.0811882 -0.25131
-0.173013 -0.02482 -0.213031
-0.179651 0.0695041 -0.153424
-0.182245 0.1625 -0.0910422
-0.174491 0.211688 -0.0463811
-0.155935 0.193469 -0.0320151
-0.129171 0.122208 -0.0405055
-0.0975965 0.0223181 -0.0585216
-0.0654287 -0.0688813 -0.0724223
-0.0395733 -0.120776 -0.0701427
0.0941885 -0.110995 -0.00596702
0.100869 -0.0882516 -0.0224489
0.100943 -0.0276858 -0.0344229
0.0915465 0.0587038 -0.0382769
0.0742555 0.148316 -0.0365529
0.0500511 0.213575 -0.0402096
0.0238101 0.228973 -0.0558634
-0.00180667 0.187626 -0.0875113
-0.0263665 0.10339 -0.131905
-0.0521556 0.00706544 -0.179205
-0.0791583 -0.064231 -0.207669
-0.105956 -0.0839606 -0.200555
-0.131321 -0.0469897 -0.152894
-0.152167 0.026181 -0.0759224
-0.162997 0.0994854 0.0088823
-0.158226 0.133093 0.075849
-0.138556 0.105114 0.10589
-0.108909 0.0340551 0.100086
-0.0747484 -0.0559639 0.070123
-0.0415178 -0.129998 0.0332193
-0.017334 -0.161954 0.00616153
0.0190769 -0.128257 -0.0514184
0.0285602 -0.109051 -0.0758338
0.0437561 -0.0511246 -0.0874873
0.0610644 0.0330423 -0.0811592
0.0784419 0.122814 -0.0593776
0.0914878 0.191853 -0.033547
0.0984451 0.217393 -0.0180568
0.0963915 0.190493 -0.0238181
0.0825458 0.12205 -0.0522483
0.0542306 0.0381237 -0.0953092
0.01371 -0.0286244 -0.129064
-0.0336955 -0.0549834 -0.130862
-0.0814027 -0.0363655 -0.0889513
-0.122148 0.00933786 -0.0102893
-0.148572 0.0523014 0.0843287
-0.154967 0.0591786 0.166624
-0.142214 0.0131579 0.211597
-0.116376 -0.0623301 0.212498
-0.083997 -0.143535 0.178264
-0.0511629 -0.198984 0.127323
-0.0262722 -0.209038 0.0783312
-0.0912678 -0.124668 -0.119771
-0.0859849 -0.116209 -0.156583
-0.0611933 -0.0755025 -0.170476
-0.020758 -0.0111693 -0.154557
0.0298747 0.0622753 -0.110862
0.081421 0.124756 -0.0501915
0.124996 0.159463 0.00362783
0.151679 0.156357 0.0309269
0.154658 0.121046 0.0236402
0.130466 0.0701023 -0.0137531
0.0829007 0.0264625 -0.0567735
0.020363 0.00593787 -0.0770992
-0.0455733 0.0106574 -0.0549222
-0.103558 0.0260046 0.00987964
-0.144369 0.0306994 0.100769
-0.161958 0.00131528 0.189643
-0.157106 -0.0707157 0.247218
-0.136457 -0.156347 0.259613
-0.106962 -0.232295 0.231506
-0.0749505 -0.271257 0.179846
-0.0485711 -0.259846 0.122599
-0.207473 -0.0930931 -0.185844
-0.212254 -0.100489 -0.235851
-0.185754 -0.0895212 -0.255184
-0.131623 -0.0612174 -0.235086
-0.0577792 -0.0203034 -0.176095
0.0233182 0.0241072 -0.0866649
0.0968243 0.0642068 0.00151089
0.148976 0.0902798 0.060218
0.169186 0.101044 0.0737869
0.153247 0.0998838 0.0417344
0.10586 0.0955663 -0.0130318
0.0374828 0.0929436 -0.0580417
-0.0366678 0.0897863 -0.0657357
-0.102192 0.0749074 -0.0274356
-0.148786 0.0369972 0.0473472
-0.170583 -0.0349253 0.133322
-0.168666 -0.13875 0.199234
-0.150302 -0.239415 0.226329
-0.122523 -0.314221 0.213966
-0.0916429 -0.340251 0.175334
-0.0648631 -0.30994 0.125672
-0.293821 -0.0334757 -0.219975
-0.311034 -0.0582509 -0.278457
-0.290354 -0.0842929 -0.304925
-0.234863 -0.102776 -0.288656
-0.153465 -0.106338 -0.227457
-0.0593191 -0.0899658 -0.125345
0.0293645 -0.0502545 -0.0170264
0.0964249 0.00504906 0.0630605
0.128792 0.0671773 0.0920775
0.121853 0.124662 0.0639009
0.0807654 0.169516 -0.00242801
0.0169749 0.193483 -0.0729483
-0.0526739 0.188569 -0.114234
-0.112515 0.146679 -0.109244
-0.15249 0.0667089 -0.059187
-0.167957 -0.0489074 0.0154499
-0.161125 -0.186221 0.0840511
-0.140293 -0.304322 0.125972
-0.112488 -0.381256 0.13493
-0.0837895 -0.398283 0.119044
-0.0597113 -0.353075 0.0896786
-0.318652 0.0450051 -0.198171
-0.34574 0.00496512 -0.255715
-0.335491 -0.0587352 -0.288598
-0.290249 -0.126871 -0.283733
-0.218176 -0.17973 -0.235524
-0.130474 -0.197149 -0.142163
-0.0452531 -0.163608 -0.0341212
0.0221511 -0.0834547 0.0519899
0.0580765 0.0274374 0.0879369
0.0579528 0.143292 0.0623383
0.0270507 0.239042 -0.0116188
-0.0231937 0.292921 -0.101883
-0.0766514 0.290641 -0.172418
-0.118511 0.226661 -0.199733
-0.140583 0.109424 -0.177237
-0.140517 -0.0457288 -0.119564
-0.122396 -0.213398 -0.0543601
-0.0958496 -0.347641 -0.00153695
-0.0678322 -0.427519 0.0278408
-0.0438321 -0.438331 0.0369016
-0.0270361 -0.382261 0.0328305
-0.268869 0.122954 -0.117733
-0.299407 0.0721428 -0.163134
-0.300267 -0.0223583 -0.198857
-0.273015 -0.132729 -0.210937
-0.223386 -0.228858 -0.18897
-0.158711 -0.277832 -0.123914
-0.0936073 -0.253721 -0.0360831
-0.0395491 -0.156037 0.040294
-0.00880497 -0.00634523 0.0743956
-0.00553216 0.157922 0.0508355
-0.0246589 0.296836 -0.0240693
-0.0556796 0.376788 -0.123298
-0.0853537 0.37783 -0.211996
-0.101795 0.296588 -0.263422
-0.100108 0.149718 -0.265139
-0.0810192 -0.0363131 -0.226045
-0.0507043 -0.226368 -0.169343
-0.0196547 -0.371187 -0.112188
0.00560885 -0.451494 -0.0688647
0.0207643 -0.45638 -0.0403055
0.0254208 -0.392414 -0.0225073
-0.148672 0.180802 0.0083832
-0.17348 0.125844 -0.0144571
-0.18188 0.0131244 -0.0489727
-0.174586 -0.125329 -0.0799648
-0.154238 -0.251801 -0.0929983
-0.122522 -0.32458 -0.0710078
-0.0882175 -0.308976 -0.0186102
-0.056969 -0.201998 0.0360575
-0.0378497 -0.0279515 0.0624253
-0.0344843 0.168032 0.0429636
-0.0424649 0.3353 -0.0231676
-0.0529945 0.431739 -0.116455
-0.0572847 0.433487 -0.206929
-0.0478818 0.33922 -0.268469
-0.0240271 0.172127 -0.285805
0.0103312 -0.0328572 -0.262965
0.0477666 -0.234054 -0.217987
0.0776731 -0.380994 -0.164821
0.0945123 -0.456145 -0.118787
0.0960601 -0.453068 -0.0825613
0.0846871 -0.383081 -0.0542032
0.0157494 0.208108 0.15288
0.00503719 0.155116 0.157659
-0.00473879 0.0385255 0.128421
-0.0140275 -0.110643 0.0799622
-0.0218188 -0.250595 0.0310021
-0.0245626 -0.335958 0.00444556
-0.0237032 -0.326867 0.014267
-0.0185479 -0.217703 0.0415126
-0.0140848 -0.0352354 0.058128
-0.0133143 0.173027 0.0464977
-0.0128034 0.350822 -0.000810929
-0.00594714 0.451765 -0.0731314
0.0109979 0.450381 -0.148211
0.0404863 0.347366 -0.204186
0.0789794 0.170579 -0.226212
0.120101 -0.0402737 -0.214661
0.156067 -0.240162 -0.182648
0.17738 -0.379974 -0.141645
0.180123 -0.444176 -0.105047
0.164718 -0.431161 -0.0752952
0.136123 -0.356706 -0.0507896
0.171313 0.202695 0.27125
0.178105 0.156958 0.299266
0.171972 0.049842 0.277204
0.15252 -0.0925794 0.219263
0.123636 -0.228922 0.144656
0.0925404 -0.314646 0.0793789
0.0643317 -0.308995 0.0515409
0.0467351 -0.204802 0.0526276
0.038066 -0.0292269 0.0599335
0.0361941 0.172214 0.0570452
0.043436 0.342952 0.0324024
0.063728 0.436704 -0.0113531
0.0957992 0.42877 -0.0605385
0.137205 0.321743 -0.0998923
0.180703 0.145865 -0.117184
0.21869 -0.0578327 -0.110944
0.24439 -0.244546 -0.0905009
0.251012 -0.368893 -0.065395
0.236794 -0.417905 -0.0453569
0.20511 -0.394439 -0.030553
0.162649 -0.317635 -0.0194428
0.284152 0.166705 0.334558
0.308364 0.131221 0.37829
0.310063 0.0431054 0.364121
0.288307 -0.0777189 0.30361
0.247661 -0.194839 0.218142
0.198076 -0.269252 0.13092
0.149387 -0.263185 0.0782712
0.112932 -0.169695 0.059469
0.0931242 -0.0135553 0.0592759
0.0885205 0.165048 0.06419
0.100302 0.314118 0.0610571
0.129619 0.391398 0.0467396
0.170803 0.375008 0.0271951
0.217041 0.269072 0.0105751
0.258372 0.103794 0.00490012
0.286585 -0.0815304 0.0113354
0.297182 -0.245587 0.023374
0.286888 -0.348773 0.0327689
0.256709 -0.380769 0.0348201
0.212554 -0.347925 0.0311186
0.161802 -0.271234 0.0240249
0.331433 0.112879 0.332636
0.366445 0.0877452 0.381544
0.375649 0.0232841 0.3746
0.356499 -0.0675842 0.319466
0.313501 -0.156486 0.235608
0.257149 -0.212212 0.145135
0.199605 -0.203192 0.0832636
0.153783 -0.124366 0.0543951
0.127565 0.0046044 0.0495455
0.122145 0.150474 0.0599387
0.137018 0.269217 0.072663
0.170853 0.325336 0.0816166
0.214911 0.301081 0.0872326
0.259534 0.201541 0.0918893
0.293272 0.0547975 0.0988599
0.308657 -0.10426 0.108232
0.303489 -0.239922 0.115394
0.278373 -0.319655 0.113637
0.237198 -0.335829 0.101454
0.187549 -0.296801 0.0823675
0.136005 -0.223591 0.0598603
0.308336 0.0579496 0.273915
0.344463 0.0415771 0.317395
0.35729 0.000497375 0.316357
0.343051 -0.0595509 0.273341
0.304865 -0.118681 0.203671
0.252969 -0.15395 0.126893
0.198546 -0.141362 0.0706165
0.154051 -0.077778 0.0408247
0.127812 0.0216974 0.0336633
0.122666 0.131574 0.0450302
0.138581 0.217872 0.0642592
0.171945 0.253144 0.085099
0.213137 0.224163 0.105158
0.251505 0.136217 0.123245
0.276204 0.0134508 0.138809
0.28073 -0.115363 0.150799
0.265212 -0.221499 0.155834
0.232751 -0.27949 0.149013
0.188938 -0.283665 0.130408
0.141964 -0.243252 0.104407
0.0969162 -0.177269 0.075176
-0.205049 -0.139939 -0.0778238
-0.222072 -0.17368 -0.070478
-0.216294 -0.186974 -0.0346307
-0.188494 -0.173056 0.026951
-0.140334 -0.13038 0.106807
-0.0765534 -0.0597716 0.194619
-0.0048504 0.0251623 0.275035
0.0653913 0.109783 0.335312
0.12478 0.181241 0.366531
0.165194 0.230429 0.363565
0.178365 0.257144 0.329233
0.15867 0.266933 0.269993
0.107798 0.268216 0.195862
0.0323391 0.270233 0.118852
-0.0603755 0.274646 0.0514934
-0.158728 0.283309 0.00508655
-0.251695 0.291184 -0.0163289
-0.327658 0.28983 -0.0166681
-0.3768 0.277284 -0.00166568
-0.39241 0.249357 0.0189496
-0.373837 0.205025 0.0328034
-0.232165 -0.127318 -0.104655
-0.261897 -0.166071 -0.101351
-0.270068 -0.185127 -0.0643649
-0.254729 -0.175478 0.00240904
-0.215057 -0.135004 0.090566
-0.154432 -0.0655388 0.188401
-0.0795869 0.0178747 0.277713
-0.000171972 0.101009 0.344104
0.0731584 0.17178 0.377984
0.12947 0.222227 0.374084
0.157109 0.254194 0.33547
0.14606 0.274774 0.269126
0.0964489 0.292046 0.185472
0.0135586 0.312768 0.096629
-0.093909 0.332839 0.0174091
-0.210651 0.348432 -0.0397403
-0.321816 0.352687 -0.0688348
-0.411174 0.338376 -0.0723172
-0.465329 0.306173 -0.0532987
-0.476777 0.257162 -0.0231866
-0.44655 0.195748 0.0037183
-0.220416 -0.0996516 -0.117161
-0.259933 -0.137749 -0.120705
-0.284676 -0.158489 -0.0908441
-0.290172 -0.151207 -0.0321428
-0.272711 -0.114885 0.0471518
-0.231961 -0.0523552 0.136418
-0.170815 0.0203589 0.21705
-0.097334 0.089985 0.276009
-0.0218518 0.147335 0.304959
0.043906 0.188752 0.299474
0.0846843 0.220155 0.262666
0.0868994 0.25103 0.200717
0.0473554 0.288396 0.122133
-0.0291604 0.333753 0.0363735
-0.135066 0.376049 -0.0426992
-0.25254 0.40222 -0.102699
-0.364228 0.402166 -0.136971
-0.451895 0.370903 -0.14453
-0.501076 0.313798 -0.123755
-0.504925 0.239556 -0.0852095
-0.466534 0.161346 -0.0443621
-0.1694 -0.0679424 -0.109694
-0.213891 -0.0984765 -0.120294
-0.253254 -0.113278 -0.103473
-0.282161 -0.101964 -0.0636683
-0.293974 -0.0664056 -0.00689985
-0.283929 -0.0121087 0.0572415
-0.250548 0.0428843 0.113759
-0.197461 0.088192 0.152777
-0.132826 0.119268 0.169332
-0.0689467 0.139637 0.160358
-0.0220303 0.161573 0.129487
-0.00747025 0.198097 0.0813369
-0.031544 0.254977 0.0208934
-0.0916993 0.326954 -0.0468499
-0.179593 0.393749 -0.112501
-0.278489 0.432552 -0.16614
-0.372252 0.429456 -0.200993
-0.4431 0.381604 -0.211105
-0.478298 0.300072 -0.190871
-0.472239 0.202412 -0.148424
-0.42977 0.111656 -0.0969643
-0.0879594 -0.0434645 -0.0777683
-0.130793 -0.0598201 -0.0928469
-0.178808 -0.0600557 -0.0910467
-0.22714 -0.0362571 -0.0751531
-0.267204 0.00460977 -0.0491161
-0.290457 0.0528692 -0.0206204
-0.290683 0.0872475 0.00120979
-0.266717 0.100504 0.0118956
-0.224065 0.0950161 0.0100624
-0.173792 0.0833701 -0.00496231
-0.130628 0.0861473 -0.0281401
-0.109458 0.121021 -0.0562354
-0.118474 0.192767 -0.088326
-0.157389 0.288954 -0.125126
-0.218383 0.378909 -0.164118