# vtk DataFile Version 2.0
Func
ASCII
DATASET RECTILINEAR_GRID
DIMENSIONS 21 21 21
X_COORDINATES 21 double
-4.7619
-4.28571
-3.80952
-3.33333
-2.85714
-2.38095
-1.90476
-1.42857
-0.952381
-0.47619
0
0.47619
0.952381
1.42857
1.90476
2.38095
2.85714
3.33333
3.80952
4.28571
4.7619
Y_COORDINATES 21 double
-4.7619
-4.28571
-3.80952
-3.33333
-2.85714
-2.38095
-1.90476
-1.42857
-0.952381
-0.47619
0
0.47619
0.952381
1.42857
1.90476
2.38095
2.85714
3.33333
3.80952
4.28571
4.7619
Z_COORDINATES 21 double
-4.7619
-4.28571
-3.80952
-3.33333
-2.85714
-2.38095
-1.90476
-1.42857
-0.952381
-0.47619
0
0.47619
0.952381
1.42857
1.90476
2.38095
2.85714
3.33333
3.80952
4.28571
4.7619
POINT_DATA 9261
SCALARS data double 3
LOOKUP_TABLE default
0.0443513 0.173824 0.0897635
0.0282322 0.228543 0.0982394
0.00430742 0.259282 0.0809312
-0.0200546 0.256703 0.0361472
-0.0374056 0.219042 -0.0320458
-0.0414412 0.154981 -0.108754
-0.0306093 0.0843609 -0.174515
-0.00634571 0.0260689 -0.216027
0.0240759 -0.00498176 -0.228169
0.0506731 -7.30513e-05 -0.21537
0.0655594 0.0354445 -0.190901
0.0637452 0.0884325 -0.170803
0.0445145 0.141809 -0.167204
0.0119398 0.179995 -0.183341
-0.0269362 0.194192 -0.210984
-0.0630218 0.183638 -0.235935
-0.0901056 0.154052 -0.245873
-0.104542 0.115845 -0.231773
-0.106231 0.0792632 -0.192912
-0.0975222 0.0507932 -0.138957
-0.0825037 0.0313798 -0.0823461
0.0395985 0.173983 0.083283
0.0259237 0.234154 0.0817895
0.0064725 0.270716 0.0510022
-0.0114607 0.272948 -0.00969603
-0.0214023 0.238676 -0.092892
-0.0184871 0.176263 -0.181165
-0.00247959 0.106162 -0.250816
0.0234018 0.0483996 -0.286809
0.0511147 0.0194135 -0.284964
0.070431 0.0296907 -0.253564
0.0740533 0.0736063 -0.211063
0.0586523 0.136976 -0.178602
0.0257153 0.200842 -0.171306
-0.018658 0.247184 -0.192071
-0.0657996 0.265316 -0.229107
-0.105939 0.252952 -0.263838
-0.132992 0.216196 -0.279725
-0.143941 0.166563 -0.265417
-0.139657 0.115716 -0.220647
-0.123953 0.0730765 -0.157426
-0.101498 0.0416922 -0.0913148
0.0219027 0.160533 0.0590303
0.0130845 0.221885 0.0439543
0.00258323 0.26299 -0.00110461
-0.00393265 0.272209 -0.0745028
-0.00273893 0.246532 -0.165625
0.00804661 0.192844 -0.255303
0.026187 0.130321 -0.317866
0.0474041 0.0785931 -0.338372
0.0639199 0.0545044 -0.314719
0.0673459 0.0692991 -0.259468
0.0532101 0.118192 -0.195906
0.0213088 0.187353 -0.149318
-0.0240789 0.257468 -0.136781
-0.0749036 0.309279 -0.160162
-0.122203 0.330567 -0.204711
-0.157443 0.317074 -0.247576
-0.17595 0.274476 -0.269418
-0.176826 0.214393 -0.2576
-0.162512 0.149377 -0.212776
-0.138224 0.092031 -0.148616
-0.108928 0.0480236 -0.0824849
-0.00926038 0.134062 0.0225302
-0.0137126 0.19261 -0.00597789
-0.014774 0.236936 -0.0621942
-0.0103148 0.254707 -0.142989
0.000325512 0.242218 -0.234926
0.0158363 0.203909 -0.317152
0.0317064 0.155708 -0.364993
0.0426596 0.114906 -0.364795
0.0423385 0.0974782 -0.317014
0.0261154 0.114768 -0.237796
-0.00661839 0.163619 -0.154135
-0.0522491 0.232031 -0.0939038
-0.103716 0.30209 -0.0748425
-0.151963 0.354835 -0.0973591
-0.188731 0.377297 -0.144576
-0.208458 0.363361 -0.191019
-0.20934 0.317781 -0.215576
-0.193598 0.250942 -0.206525
-0.165756 0.175526 -0.166022
-0.132431 0.106374 -0.108622
-0.0981892 0.0518385 -0.0516848
-0.0532693 0.098519 -0.0156235
-0.0562865 0.150775 -0.053978
-0.051216 0.196512 -0.116124
-0.0400041 0.22363 -0.198345
-0.0252154 0.227225 -0.284873
-0.0109422 0.209038 -0.354561
-0.0029666 0.179975 -0.38574
-0.00699244 0.153508 -0.367048
-0.0266153 0.143409 -0.300698
-0.0616621 0.160434 -0.204853
-0.108538 0.203657 -0.107867
-0.160026 0.264179 -0.0377661
-0.207108 0.327109 -0.0113667
-0.241049 0.375379 -0.0275134
-0.255946 0.396239 -0.0689609
-0.250348 0.382455 -0.110112
-0.226205 0.337082 -0.130611
-0.189353 0.268605 -0.121861
-0.146675 0.188686 -0.0881936
-0.105423 0.11336 -0.0434119
-0.0692817 0.0527847 -0.00349893
-0.104174 0.0581511 -0.0460631
-0.110873 0.100788 -0.0900112
-0.107055 0.145505 -0.152804
-0.0974586 0.181287 -0.230147
-0.0871463 0.202273 -0.306129
-0.0817949 0.206884 -0.361645
-0.0872445 0.199879 -0.379313
-0.108403 0.189806 -0.350355
-0.145557 0.187126 -0.277871
-0.193668 0.20123 -0.179785
-0.245361 0.233788 -0.0822502
-0.290846 0.279959 -0.010069
-0.320574 0.329184 0.022973
-0.327708 0.367727 0.0196598
-0.310079 0.384213 -0.00483037
-0.271478 0.370777 -0.0280598
-0.217892 0.328715 -0.0335402
-0.158704 0.263783 -0.0188698
-0.102553 0.186305 0.00886432
-0.0565754 0.111762 0.037631
-0.0228339 0.0508364 0.0549976
-0.153231 0.0169631 -0.0575973
-0.16831 0.047834 -0.100244
-0.172999 0.0888268 -0.157709
-0.172891 0.131531 -0.22657
-0.173975 0.168987 -0.292249
-0.182313 0.196568 -0.339349
-0.202854 0.212283 -0.354155
-0.238848 0.219323 -0.32977
-0.286818 0.224388 -0.268705
-0.338089 0.234666 -0.185705
-0.382806 0.254274 -0.101525
-0.410309 0.282618 -0.0350944
-0.412246 0.313994 0.00407887
-0.385048 0.338862 0.0198095
-0.331068 0.348268 0.0229993
-0.259169 0.334437 0.0298282
-0.178976 0.296949 0.0502828
-0.102218 0.239297 0.0787718
-0.038403 0.170046 0.104863
0.00666503 0.102806 0.119021
0.0330144 0.047135 0.113611
-0.185885 -0.0219204 -0.0451125
-0.211256 -0.00461276 -0.0793442
-0.228393 0.0301423 -0.126317
-0.242405 0.0766748 -0.184431
-0.258438 0.127451 -0.242729
-0.28157 0.175793 -0.28951
-0.315062 0.212982 -0.313728
-0.359379 0.237327 -0.309236
-0.408472 0.251301 -0.276306
-0.451818 0.259206 -0.2238
-0.479006 0.26689 -0.164549
-0.480508 0.277405 -0.109831
-0.450732 0.289602 -0.0644569
-0.390106 0.298393 -0.0247043
-0.305235 0.297941 0.014063
-0.208747 0.281822 0.059225
-0.112342 0.248295 0.112361
-0.0283848 0.199404 0.159374
0.034266 0.142345 0.187299
0.0719698 0.0875021 0.189232
0.086981 0.0418258 0.163193
-0.191031 -0.0564641 -0.0121158
-0.224127 -0.0535633 -0.0324325
-0.252293 -0.0276017 -0.0657563
-0.279045 0.0187227 -0.112872
-0.307732 0.0787773 -0.166861
-0.341414 0.144159 -0.219769
-0.380929 0.200622 -0.262274
-0.424508 0.242269 -0.287901
-0.464908 0.267469 -0.29336
-0.49185 0.277107 -0.279939
-0.496288 0.277568 -0.251211
-0.471427 0.274191 -0.210226
-0.415229 0.269256 -0.157567
-0.331827 0.261676 -0.0910003
-0.230692 0.249052 -0.0136036
-0.126012 0.227321 0.0717086
-0.029447 0.194665 0.157335
0.0481095 0.153027 0.221774
0.0998017 0.1086 0.251138
0.124652 0.067986 0.241958
0.126543 0.0347868 0.198337
-0.162531 -0.0869961 0.0332469
-0.196946 -0.0989122 0.0285943
-0.230263 -0.0842286 0.00916602
-0.263664 -0.0416532 -0.0278198
-0.298192 0.0236203 -0.079444
-0.334556 0.102091 -0.141234
-0.371363 0.175401 -0.204677
-0.405359 0.234484 -0.262391
-0.429715 0.274046 -0.307219
-0.43633 0.291279 -0.332668
-0.419062 0.291755 -0.33323
-0.37481 0.281388 -0.304353
-0.305062 0.264284 -0.243464
-0.216527 0.2423 -0.151025
-0.11941 0.216311 -0.0382722
-0.0267711 0.185244 0.0814264
0.0520603 0.148502 0.191921
0.109596 0.109493 0.267042
0.142099 0.0743292 0.294009
0.151118 0.0460956 0.273366
0.14133 0.0250226 0.215445
-0.101521 -0.112799 0.0798458
-0.129318 -0.138945 0.0898595
-0.159601 -0.136432 0.0830838
-0.191308 -0.100473 0.0555257
-0.223362 -0.0342791 0.00685355
-0.254295 0.0523882 -0.061283
-0.281088 0.138804 -0.140915
-0.299937 0.214137 -0.223803
-0.305769 0.270315 -0.299581
-0.293873 0.301003 -0.355201
-0.261747 0.309644 -0.377642
-0.210053 0.300845 -0.356407
-0.143029 0.278577 -0.287187
-0.0683793 0.24608 -0.173915
0.00514403 0.206881 -0.0352653
0.0679785 0.163131 0.106228
0.114885 0.116808 0.227799
0.142972 0.0742914 0.302222
0.152111 0.0425521 0.320026
0.145718 0.0222608 0.286099
0.128081 0.010999 0.216554
-0.0178003 -0.133999 0.116341
-0.0324832 -0.172172 0.137521
-0.0527107 -0.181229 0.141061
-0.0758604 -0.153724 0.122887
-0.0993232 -0.0907123 0.0804796
-0.119914 -0.00142608 0.0133833
-0.13365 0.0930033 -0.0714789
-0.136885 0.181575 -0.165796
-0.126993 0.254743 -0.257521
-0.102935 0.3033 -0.329353
-0.0657216 0.327541 -0.363165
-0.0191103 0.329008 -0.3446
0.0310447 0.309518 -0.268849
0.0775236 0.271841 -0.143314
0.114631 0.221149 0.00767503
0.137694 0.162672 0.154813
0.146324 0.102074 0.271355
0.142419 0.0498776 0.332513
0.129226 0.0147712 0.333843
0.111084 -0.0033818 0.284509
0.0909681 -0.00834413 0.205492
0.0725043 -0.150909 0.133727
0.0737902 -0.197903 0.161013
0.066968 -0.216671 0.172111
0.0552091 -0.198273 0.164043
0.0419069 -0.141813 0.13315
0.0314323 -0.0553438 0.0774434
0.0283091 0.0413919 0.00165203
0.0358051 0.138669 -0.0872244
0.0542988 0.226887 -0.177491
0.0818672 0.294951 -0.250389
0.1149 0.339506 -0.285311
0.147681 0.357833 -0.26597
0.173813 0.348034 -0.187709
0.187445 0.31075 -0.0605109
0.186388 0.251669 0.0881599
0.170853 0.178589 0.225196
0.144797 0.101396 0.322579
0.114041 0.0352567 0.360378
0.0843271 -0.00891124 0.339918
0.0600046 -0.0303499 0.274107
0.0424188 -0.0327677 0.187495
0.151604 -0.163251 0.126859
0.167255 -0.215136 0.154876
0.172651 -0.240599 0.171031
0.170357 -0.230722 0.174218
0.163801 -0.183258 0.160495
0.158088 -0.104595 0.126772
0.158206 -0.0116309 0.0740587
0.16742 0.0883447 0.0064792
0.184964 0.187113 -0.0666512
0.207525 0.272911 -0.12778
0.230422 0.338835 -0.156157
0.247301 0.377408 -0.134998
0.251908 0.382097 -0.0597636
0.239708 0.350196 0.0585187
0.211068 0.286853 0.192019
0.169592 0.201675 0.30687
0.121844 0.108611 0.376072
0.0757675 0.027303 0.385408
0.0382837 -0.0290178 0.341564
0.0132064 -0.0574359 0.260292
0.000541379 -0.0601108 0.168068
0.204996 -0.169452 0.097539
0.230082 -0.221368 0.121151
0.24325 -0.249561 0.139833
0.245457 -0.246486 0.154887
0.239671 -0.209601 0.162469
0.231314 -0.143469 0.158421
0.225993 -0.0611148 0.138985
0.227539 0.0336948 0.103938
0.235524 0.135577 0.0584069
0.247098 0.233566 0.0166091
0.25813 0.3179 -0.00223549
0.262819 0.376489 0.0185219
0.255345 0.397848 0.0841008
0.231814 0.375216 0.184433
0.193387 0.312286 0.293912
0.144685 0.219657 0.380498
0.0924701 0.114918 0.419663
0.0447964 0.0211775 0.402159
0.00841806 -0.0465966 0.338282
-0.0135888 -0.082328 0.245289
-0.0213668 -0.0860296 0.14991
0.225636 -0.167113 0.0501869
0.254134 -0.214174 0.0653195
0.269512 -0.240654 0.083843
0.270754 -0.242219 0.110022
0.259739 -0.216787 0.14077
0.241842 -0.167167 0.170389
0.223348 -0.101735 0.189434
0.209584 -0.0204009 0.192304
0.201987 0.075549 0.178856
0.19995 0.177342 0.158616
0.201358 0.273495 0.148397
0.201841 0.348148 0.164726
0.195868 0.385297 0.214674
0.179071 0.374059 0.291146
0.151211 0.316062 0.372717
0.115109 0.222493 0.431091
0.0755968 0.112664 0.444728
0.0387839 0.012222 0.407303
0.0101476 -0.0624349 0.330059
-0.00765565 -0.102447 0.230616
-0.0136033 -0.106282 0.134967
0.215584 -0.155275 -0.00475491
0.241782 -0.193315 -0.000212657
0.254279 -0.214584 0.0162469
0.250049 -0.218525 0.0513218
0.229841 -0.2045 0.103069
0.198467 -0.173543 0.164432
0.163091 -0.129451 0.220076
0.130752 -0.0680173 0.2588
0.105971 0.0138552 0.275214
0.0914207 0.110671 0.273809
0.0878787 0.210466 0.268755
0.0928581 0.294887 0.276648
0.100866 0.344435 0.307297
0.106043 0.344664 0.357935
0.104903 0.295231 0.412371
0.0964855 0.206573 0.447188
0.0820194 0.0985306 0.443669
0.0641792 -0.00182613 0.39601
0.0464527 -0.0770208 0.31402
0.0316549 -0.116656 0.214764
0.0232104 -0.118778 0.122129
0.18194 -0.134238 -0.0536364
0.20257 -0.160727 -0.0586557
0.210186 -0.174729 -0.0451722
0.200048 -0.179251 -0.00557013
0.171427 -0.175441 0.0594285
0.128442 -0.163012 0.142376
0.0784717 -0.141674 0.223872
0.0301206 -0.103681 0.288326
-0.00908535 -0.0418104 0.326347
-0.0329709 0.0421075 0.338432
-0.0376647 0.136824 0.335911
-0.0236432 0.223124 0.334896
0.00358876 0.279613 0.347428
0.0362966 0.289505 0.374918
0.0670759 0.250653 0.406548
0.0906512 0.172157 0.42418
0.104025 0.0730608 0.411892
0.106011 -0.019505 0.363241
0.0983449 -0.0883928 0.285121
0.0843103 -0.122652 0.193428
0.0702076 -0.121201 0.108514
0.138298 -0.106403 -0.0867789
0.152056 -0.120376 -0.099701
0.15432 -0.126421 -0.0906289
0.139521 -0.130245 -0.0511933
0.106125 -0.134888 0.0182858
0.0568927 -0.138866 0.110634
-0.00114768 -0.1389 0.204722
-0.0587539 -0.124551 0.282623
-0.106215 -0.0851825 0.331947
-0.134741 -0.019211 0.350303
-0.137965 0.0636416 0.346593
-0.114582 0.144745 0.336196
-0.0699037 0.202438 0.332851
-0.0130823 0.219 0.341705
0.0454199 0.190815 0.356803
0.0959086 0.12561 0.364867
0.131746 0.0407342 0.35248
0.149013 -0.0383651 0.311674
0.148047 -0.0954838 0.245839
0.132866 -0.120603 0.167707
0.111885 -0.114067 0.0941136
0.0952482 -0.0754341 -0.100454
0.103446 -0.0781471 -0.118561
0.102271 -0.0771639 -0.114714
0.0865668 -0.0799402 -0.0802248
0.0540211 -0.0906121 -0.0148301
0.00578023 -0.107065 0.0746359
-0.0520904 -0.124166 0.167755
-0.110721 -0.130055 0.24656
-0.159711 -0.11192 0.297546
-0.188811 -0.0655762 0.316392
-0.190256 0.0012433 0.310001
-0.161453 0.0717432 0.292466
-0.107178 0.125575 0.278073
-0.0367601 0.145543 0.274508
0.0370745 0.127202 0.279464
0.102049 0.0766197 0.283867
0.149514 0.00894481 0.27638
0.174049 -0.0532644 0.247897
0.175705 -0.0958237 0.198335
0.159204 -0.110598 0.137165
0.133395 -0.0993853 0.0772353
0.0596233 -0.0458674 -0.0944284
0.0639303 -0.0411038 -0.113541
0.0614795 -0.0361598 -0.113838
0.0479998 -0.0385731 -0.087304
0.0210291 -0.0527987 -0.0331527
-0.0195204 -0.0764223 0.0424806
-0.0690767 -0.103614 0.122499
-0.120266 -0.122587 0.19083
-0.163423 -0.120368 0.235117
-0.188975 -0.0915726 0.250332
-0.189159 -0.0418686 0.241619
-0.161032 0.0146497 0.220889
-0.108153 0.0603399 0.20132
-0.0393032 0.0801507 0.191366
0.0333097 0.0696072 0.191222
0.0972234 0.0331577 0.194805
0.143932 -0.0171513 0.193257
0.168091 -0.0622468 0.177605
0.169822 -0.0901264 0.145457
0.153934 -0.0953095 0.102995
0.12835 -0.0807858 0.0590136
0.0526717 0.234155 0.10717
0.0325083 0.306468 0.116585
0.00265201 0.348332 0.0950324
-0.0282071 0.348122 0.0399841
-0.050931 0.303043 -0.0429325
-0.0577858 0.222612 -0.135533
-0.0467504 0.131797 -0.213683
-0.0191822 0.0535699 -0.261364
0.0163157 0.00599725 -0.272589
0.0473048 4.76005e-05 -0.252757
0.063707 0.0301736 -0.218303
0.0590939 0.0812842 -0.189046
0.0324239 0.133575 -0.180071
-0.011426 0.169129 -0.195621
-0.0635026 0.1784 -0.226446
-0.112067 0.161106 -0.256025
-0.148853 0.124149 -0.269364
-0.168615 0.0814217 -0.255369
-0.170355 0.0452561 -0.213507
-0.156795 0.0214219 -0.154097
-0.133068 0.00960835 -0.0913793
0.0469042 0.238383 0.10625
0.0312121 0.317918 0.106513
0.00858788 0.366272 0.0701937
-0.0126511 0.370301 -0.00413245
-0.0250541 0.327037 -0.107056
-0.0224168 0.246361 -0.216394
-0.00451742 0.154503 -0.30179
0.0252879 0.0761268 -0.344396
0.0574012 0.0309594 -0.338948
0.079209 0.0316771 -0.295347
0.0812745 0.0719722 -0.236651
0.0591002 0.134957 -0.189572
0.0142611 0.198251 -0.173663
-0.0461051 0.241096 -0.19341
-0.111084 0.252043 -0.235834
-0.167857 0.229591 -0.279019
-0.207832 0.181723 -0.302443
-0.226029 0.124444 -0.291362
-0.222183 0.0719552 -0.245131
-0.200425 0.0333049 -0.176518
-0.166873 0.0105319 -0.103567
0.0270961 0.222931 0.0859831
0.0192151 0.30345 0.0732796
0.00958003 0.355683 0.0218514
0.00427567 0.365631 -0.0673994
0.00731895 0.329944 -0.181489
0.0212998 0.257672 -0.295084
0.043068 0.174027 -0.374513
0.0680245 0.103509 -0.400256
0.0868105 0.0660156 -0.369132
0.089058 0.0745639 -0.296098
0.068789 0.12286 -0.210428
0.0252454 0.193579 -0.14455
-0.036644 0.263443 -0.121154
-0.107241 0.310339 -0.144023
-0.175254 0.321515 -0.19696
-0.229127 0.293899 -0.252709
-0.261608 0.235964 -0.286711
-0.269912 0.164742 -0.281742
-0.255412 0.0956511 -0.237582
-0.223834 0.0412498 -0.168816
-0.181903 0.00655371 -0.0959341
-0.00712153 0.188088 0.0523624
-0.00773274 0.263213 0.0269309
-0.00384422 0.31646 -0.0356763
0.00637541 0.333546 -0.132863
0.0231115 0.311035 -0.248846
0.0449329 0.255998 -0.355457
0.0657488 0.190187 -0.419341
0.0794767 0.135303 -0.422047
0.0782803 0.109653 -0.363217
0.0563745 0.125497 -0.261939
0.0125341 0.177221 -0.152311
-0.0493344 0.248713 -0.0703594
-0.12087 0.317934 -0.0400532
-0.190935 0.363402 -0.0636715
-0.248816 0.372109 -0.122436
-0.286359 0.339839 -0.185594
-0.299556 0.275023 -0.225943
-0.289275 0.194046 -0.226392
-0.25943 0.112455 -0.187993
-0.217527 0.0452368 -0.126689
-0.170007 0.000503245 -0.0635164
-0.0554502 0.138507 0.0167373
-0.0528523 0.20251 -0.0177461
-0.0398485 0.25371 -0.0853902
-0.0195342 0.278658 -0.183036
0.00424748 0.273352 -0.292275
0.0266621 0.242503 -0.384594
0.0397505 0.201949 -0.429725
0.0367134 0.168638 -0.411834
0.0125046 0.15737 -0.332675
-0.0327873 0.178626 -0.213683
-0.0951633 0.228086 -0.0907831
-0.166187 0.292416 -0.000241005
-0.234924 0.352888 0.0351506
-0.290134 0.390704 0.0152465
-0.323607 0.393864 -0.0402583
-0.331702 0.357934 -0.0998734
-0.315072 0.290359 -0.137025
-0.279212 0.205806 -0.137832
-0.231234 0.118423 -0.105769
-0.179854 0.0443979 -0.056728
-0.130493 -0.00605109 -0.0109272
-0.111761 0.080378 -0.0107828
-0.112249 0.12844 -0.0497584
-0.0991659 0.174285 -0.116437
-0.0790957 0.206324 -0.206967
-0.0588869 0.220334 -0.302984
-0.0455425 0.217751 -0.378444
-0.0473499 0.206965 -0.40825
-0.0703358 0.198692 -0.37971
-0.116087 0.202869 -0.295717
-0.178544 0.227145 -0.177517
-0.248847 0.268917 -0.0583901
-0.315129 0.318843 0.0295156
-0.365471 0.363165 0.0675019
-0.390279 0.387566 0.0579857
-0.385443 0.382504 0.0189695
-0.353345 0.343866 -0.0211325
-0.299801 0.277943 -0.0402795
-0.23511 0.196444 -0.0319344
-0.169274 0.111552 -0.0029906
-0.111487 0.0385693 0.0314933
-0.0652451 -0.0117963 0.0545468
-0.166484 0.0200085 -0.0181694
-0.17615 0.0493388 -0.0543019
-0.172354 0.0868324 -0.11349
-0.162494 0.124392 -0.192825
-0.154769 0.15733 -0.275641
-0.15687 0.183847 -0.34068
-0.176136 0.204042 -0.367592
-0.217133 0.221676 -0.34611
-0.277012 0.241521 -0.278638
-0.345305 0.267407 -0.182679
-0.409755 0.298464 -0.0848287
-0.457003 0.329771 -0.00965645
-0.476122 0.353315 0.0300103
-0.460778 0.360311 0.0386087
-0.411889 0.344995 0.0299095
-0.337836 0.304035 0.0253708
-0.249255 0.242528 0.0391075
-0.160021 0.169377 0.0677044
-0.0821404 0.0942592 0.0998017
-0.0239586 0.0299169 0.122019
0.0135012 -0.0145899 0.122053
-0.202064 -0.0374578 -0.00169887
-0.223512 -0.02833 -0.027801
-0.234169 -0.00138875 -0.0743539
-0.240728 0.0389114 -0.140305
-0.250308 0.087565 -0.213104
-0.269783 0.140735 -0.276674
-0.304769 0.189959 -0.314486
-0.356682 0.232726 -0.317683
-0.419619 0.26837 -0.286224
-0.480816 0.296355 -0.230687
-0.526869 0.317039 -0.167795
-0.545242 0.32947 -0.112208
-0.527835 0.331127 -0.0701946
-0.472524 0.318967 -0.0365461
-0.384998 0.291668 -0.00414952
-0.278202 0.247939 0.0383063
-0.165924 0.191636 0.0944153
-0.0636502 0.129585 0.149853
0.0164083 0.0694239 0.189456
0.0677128 0.019763 0.20185
0.0918139 -0.014051 0.180737
-0.204799 -0.0880164 0.0332321
-0.235387 -0.0989225 0.021991
-0.259341 -0.0843088 -0.00928423
-0.281298 -0.0451475 -0.0620322
-0.306271 0.0148966 -0.128196
-0.33886 0.090013 -0.197027
-0.381787 0.164585 -0.255104
-0.434026 0.230691 -0.293869
-0.488212 0.28273 -0.309389
-0.531811 0.315576 -0.303383
-0.552652 0.329898 -0.281034
-0.540971 0.32743 -0.246324
-0.492469 0.309917 -0.199444
-0.409053 0.279382 -0.136078
-0.299619 0.239048 -0.0576378
-0.179208 0.190474 0.0350264
-0.0621833 0.137403 0.13395
0.0368894 0.0858353 0.214924
0.107296 0.0417468 0.260728
0.145044 0.00897651 0.263379
0.153516 -0.0117381 0.223451
-0.168534 -0.130435 0.0769645
-0.20101 -0.160223 0.0812669
-0.231603 -0.159612 0.0645747
-0.262128 -0.124889 0.0235501
-0.29486 -0.0581684 -0.0381851
-0.33159 0.0333221 -0.114861
-0.372254 0.128592 -0.195201
-0.414186 0.215775 -0.270412
-0.450434 0.285267 -0.332389
-0.471036 0.327539 -0.373813
-0.467022 0.34245 -0.388594
-0.432622 0.332656 -0.370865
-0.367369 0.302268 -0.31613
-0.27609 0.256888 -0.222562
-0.168474 0.203694 -0.100893
-0.0586196 0.14748 0.0354635
0.0413799 0.0930389 0.167732
0.120309 0.0472631 0.26511
0.170538 0.0156056 0.310702
0.190696 -0.00248597 0.301206
0.184922 -0.0107759 0.244789
-0.0950666 -0.163167 0.116765
-0.120421 -0.209512 0.134505
-0.148405 -0.222531 0.130415
-0.178144 -0.194766 0.100166
-0.209295 -0.126466 0.0437967
-0.240879 -0.0253997 -0.0369118
-0.270625 0.0842997 -0.132574
-0.29523 0.188718 -0.234327
-0.309762 0.275664 -0.330758
-0.308361 0.331932 -0.407057
-0.286354 0.355464 -0.44789
-0.242199 0.347823 -0.439724
-0.178474 0.313128 -0.375287
-0.101301 0.258454 -0.25635
-0.0186831 0.193768 -0.102347
0.0589623 0.127051 0.0621896
0.124085 0.0654603 0.210128
0.170454 0.0185317 0.308578
0.194439 -0.00759253 0.34372
0.196787 -0.0163847 0.317874
0.180954 -0.0150714 0.246702
0.00326216 -0.185705 0.14117
-0.00785359 -0.244109 0.167925
-0.0255763 -0.268613 0.173712
-0.0471302 -0.249229 0.154442
-0.0701206 -0.184416 0.107718
-0.0911697 -0.0815812 0.0324257
-0.10646 0.0345858 -0.0644976
-0.112767 0.150331 -0.175102
-0.108035 0.252748 -0.286558
-0.0909347 0.32625 -0.379353
-0.0611745 0.366001 -0.431957
-0.0208422 0.370477 -0.425872
0.025615 0.341262 -0.352755
0.0723122 0.284394 -0.218142
0.114711 0.210966 -0.0481939
0.147699 0.13174 0.124284
0.169373 0.0573642 0.267153
0.178957 0.0015724 0.349887
0.176864 -0.027612 0.364016
0.165101 -0.0344183 0.31777
0.145344 -0.0276506 0.233463
0.106677 -0.198961 0.14264
0.112411 -0.264109 0.172938
0.108051 -0.296772 0.185975
0.0971302 -0.285976 0.179108
0.0833661 -0.228804 0.148575
0.0720396 -0.131503 0.0912346
0.0681049 -0.0169507 0.0103644
0.0745624 0.103222 -0.0885966
0.0908136 0.217233 -0.193826
0.114408 0.308658 -0.28441
0.142133 0.369488 -0.335857
0.169422 0.39372 -0.327172
0.191043 0.378399 -0.249886
0.202243 0.326313 -0.112361
0.202377 0.247975 0.0554755
0.191669 0.15616 0.216131
0.173401 0.065575 0.335854
0.151442 -0.00501943 0.389624
0.129437 -0.0449428 0.375473
0.10977 -0.0568784 0.306981
0.092013 -0.0491885 0.211575
0.19379 -0.203904 0.11848
0.213622 -0.270105 0.147271
0.220369 -0.30665 0.165789
0.216989 -0.303366 0.173437
0.207769 -0.25677 0.165905
0.199411 -0.17137 0.13868
0.197958 -0.0662881 0.0898009
0.206686 0.050526 0.0205147
0.223633 0.170163 -0.0606472
0.244358 0.277028 -0.134401
0.263806 0.360109 -0.1761
0.276327 0.408247 -0.164039
0.276537 0.412683 -0.089691
0.260743 0.371303 0.0375171
0.231013 0.292551 0.187229
0.191276 0.190254 0.320994
0.148011 0.0830654 0.406283
0.107751 -0.00509424 0.424729
0.0759111 -0.0606019 0.380663
0.0546826 -0.0828911 0.291716
0.0421105 -0.0775809 0.188189
0.248223 -0.200063 0.0738849
0.275949 -0.261178 0.0968035
0.288077 -0.296532 0.11903
0.285986 -0.298423 0.142524
0.274028 -0.264043 0.162585
0.259706 -0.195983 0.173337
0.250303 -0.108341 0.166816
0.250089 -0.00404599 0.138591
0.257542 0.11249 0.0919992
0.268416 0.2283 0.0423724
0.277733 0.330158 0.0125965
0.280083 0.401866 0.0243167
0.270158 0.428404 0.0869974
0.24458 0.401847 0.192444
0.206013 0.327426 0.313021
0.159409 0.219097 0.412474
0.111476 0.0991535 0.461201
0.0691505 -0.00434381 0.446759
0.0380266 -0.0755759 0.377909
0.0197781 -0.109105 0.27424
0.0124377 -0.106953 0.166681
0.262758 -0.18627 0.0158479
0.291283 -0.236794 0.0297698
0.302269 -0.265954 0.0536402
0.295205 -0.270569 0.0923589
0.27363 -0.249118 0.141558
0.245367 -0.202543 0.193305
0.218902 -0.138925 0.23289
0.200516 -0.0558589 0.24945
0.191052 0.047976 0.240102
0.188643 0.163747 0.214865
0.190213 0.277205 0.193972
0.191601 0.368007 0.199094
0.187327 0.415344 0.242007
0.173129 0.405401 0.318073
0.149674 0.339582 0.404769
0.11966 0.231683 0.470306
0.0875845 0.105265 0.488618
0.0582203 -0.00812329 0.450691
0.0358445 -0.0903772 0.366678
0.022035 -0.132024 0.25629
0.0163997 -0.131878 0.149384
0.241683 -0.162716 -0.0441548
0.264755 -0.198702 -0.040524
0.269229 -0.218304 -0.0168155
0.252592 -0.223309 0.0342718
0.217432 -0.214434 0.109031
0.171113 -0.190916 0.197741
0.123457 -0.15516 0.278932
0.0829321 -0.0992213 0.335343
0.0542263 -0.0161186 0.358287
0.0391972 0.0904242 0.352224
0.0378636 0.206386 0.334593
0.0478941 0.308748 0.327379
0.0633369 0.372224 0.345694
0.0779936 0.377946 0.389979
0.0883048 0.323992 0.444052
0.0926428 0.22226 0.481951
0.0910819 0.0966394 0.480818
0.0844514 -0.019159 0.432104
0.0747544 -0.105242 0.344647
0.0639395 -0.149314 0.236705
0.0549012 -0.148802 0.13527
0.195525 -0.131092 -0.0928583
0.210532 -0.151051 -0.0981153
0.207643 -0.159866 -0.0759637
0.182605 -0.163748 -0.0184702
0.1365 -0.165764 0.0715343
0.0756773 -0.16404 0.183712
0.010262 -0.156072 0.292316
-0.0492619 -0.129446 0.375282
-0.0945216 -0.072113 0.41975
-0.119486 0.0172864 0.426058
-0.120579 0.126134 0.408609
-0.0980213 0.230645 0.388962
-0.0581702 0.303129 0.384802
-0.00949705 0.321377 0.401262
0.0395016 0.280698 0.428576
0.0823823 0.190648 0.446969
0.113889 0.0739795 0.436658
0.13047 -0.0351973 0.388261
0.132058 -0.116725 0.307697
0.121332 -0.157029 0.210973
0.105074 -0.153743 0.120466
0.140597 -0.0949332 -0.122123
0.14747 -0.0994971 -0.134996
0.138582 -0.0980333 -0.117128
0.108771 -0.0998559 -0.0602116
0.0579118 -0.110304 0.0334587
-0.00955893 -0.126608 0.153612
-0.0841121 -0.142956 0.273191
-0.154711 -0.143801 0.368218
-0.209991 -0.113358 0.42279
-0.240595 -0.045921 0.434358
-0.239796 0.0480688 0.414603
-0.205779 0.145846 0.384055
-0.144894 0.219552 0.36198
-0.0673445 0.245696 0.357396
0.0145693 0.217533 0.366107
0.0889327 0.142781 0.373827
0.146276 0.0417276 0.363728
0.179933 -0.0532413 0.324953
0.188295 -0.122819 0.259865
0.175063 -0.154102 0.180372
0.149993 -0.1458 0.104297
0.0898117 -0.0583584 -0.129508
0.0912969 -0.0505202 -0.147507
0.0801565 -0.0410388 -0.135912
0.0514971 -0.0410532 -0.086167
0.00385374 -0.0570179 0.000229217
-0.0606844 -0.085895 0.113417
-0.1341 -0.120068 0.228026
-0.205902 -0.142799 0.320874
-0.263673 -0.136255 0.375421
-0.295954 -0.091799 0.387065
-0.293981 -0.0173393 0.365137
-0.254336 0.0669021 0.328224
-0.182794 0.135026 0.295565
-0.0897484 0.164351 0.278491
0.00939675 0.147279 0.276635
0.0996951 0.0893857 0.280371
0.169216 0.00823969 0.275665
0.209821 -0.0674589 0.250796
0.21968 -0.120618 0.204465
0.203572 -0.140407 0.144773
0.172263 -0.127232 0.0848889
0.0506006 -0.0265755 -0.115454
0.0497317 -0.0115323 -0.134624
0.0400197 0.00179707 -0.129054
0.0172956 0.00236742 -0.0909786
-0.0207077 -0.0164408 -0.0209323
-0.0737294 -0.0515516 0.0724109
-0.135897 -0.094908 0.168298
-0.198651 -0.130325 0.246697
-0.250329 -0.140415 0.293071
-0.27981 -0.115645 0.301994
-0.277891 -0.0614626 0.280485
-0.240644 0.00540845 0.243863
-0.172273 0.0627409 0.20914
-0.0828295 0.0907286 0.187719
0.0126416 0.0821684 0.181382
0.0990398 0.0406537 0.184041
0.164904 -0.0200179 0.184872
0.202479 -0.075519 0.172963
0.210301 -0.111206 0.144721
0.193699 -0.119644 0.104987
0.162622 -0.102966 0.062491
0.0487275 0.277169 0.122115
0.0247175 0.362892 0.132459
-0.00973948 0.414149 0.10718
-0.0453604 0.417807 0.0427623
-0.0722068 0.370033 -0.0536138
-0.0820897 0.279987 -0.161219
-0.0726909 0.175919 -0.251417
-0.0452252 0.0823698 -0.305155
-0.00877426 0.0188835 -0.315161
0.0228004 -0.00243336 -0.287361
0.0384023 0.0131318 -0.240912
0.0306217 0.0501669 -0.199167
-0.00183185 0.088595 -0.180381
-0.0535257 0.110847 -0.190541
-0.114364 0.108851 -0.220607
-0.171222 0.0834576 -0.252942
-0.214208 0.0429735 -0.270165
-0.236726 0.00373797 -0.25914
-0.23671 -0.0223501 -0.219132
-0.217188 -0.031766 -0.159832
-0.183904 -0.0270664 -0.0963821
0.0420029 0.285821 0.130425
0.0238811 0.379227 0.133524
-0.00134018 0.43626 0.0927124
-0.0248818 0.44234 0.0056442
-0.038768 0.394041 -0.116191
-0.0364317 0.301544 -0.246438
-0.0177363 0.195032 -0.348068
0.0137654 0.100972 -0.397837
0.0478166 0.0404597 -0.388746
0.0700882 0.0266827 -0.331715
0.0699647 0.0529051 -0.254062
0.0418444 0.101211 -0.188005
-0.0127611 0.148598 -0.158014
-0.0859971 0.174873 -0.171281
-0.165451 0.170612 -0.215093
-0.236326 0.136008 -0.265565
-0.287601 0.0814707 -0.298259
-0.312203 0.026413 -0.294773
-0.30831 -0.0152898 -0.253501
-0.280193 -0.0370802 -0.186416
-0.23497 -0.0394649 -0.112805
0.0219838 0.27079 0.118704
0.0142181 0.363912 0.110729
0.00562607 0.422603 0.0548197
0.00227914 0.431564 -0.0494771
0.00832757 0.387922 -0.186503
0.0263675 0.302009 -0.324971
0.0523877 0.203547 -0.422911
0.081208 0.11904 -0.455315
0.102611 0.0693363 -0.41714
0.104481 0.0670249 -0.32502
0.079685 0.104128 -0.214061
0.0265465 0.161262 -0.124016
-0.0497304 0.214064 -0.0839852
-0.138383 0.241264 -0.101108
-0.22633 0.232879 -0.159255
-0.299629 0.188291 -0.228104
-0.348023 0.119657 -0.277643
-0.366035 0.0485191 -0.285324
-0.353218 -0.00993186 -0.24925
-0.315454 -0.0458202 -0.183247
-0.26078 -0.0569261 -0.109466
-0.0108901 0.231622 0.0923849
-0.00842085 0.315963 0.0735115
0.000469369 0.371701 0.00707408
0.0172964 0.383856 -0.105627
0.041875 0.350505 -0.246371
0.0722514 0.28115 -0.379336
0.101068 0.202361 -0.461747
0.120866 0.137696 -0.469355
0.122697 0.105621 -0.400202
0.0992053 0.116617 -0.275683
0.0481045 0.161834 -0.137021
-0.027215 0.221985 -0.0288196
-0.117611 0.273554 0.0177217
-0.210415 0.296372 -0.00308943
-0.292568 0.281009 -0.0720315
-0.353212 0.226745 -0.154054
-0.385157 0.147038 -0.215255
-0.386462 0.0636901 -0.232041
-0.359281 -0.00799372 -0.203372
-0.311429 -0.055986 -0.144886
-0.251058 -0.0750059 -0.0800057
-0.0568556 0.172882 0.0628039
-0.0485581 0.240938 0.0366846
-0.0270245 0.28938 -0.0332664
0.00390208 0.304988 -0.145324
0.0394907 0.286395 -0.278567
0.0741437 0.24195 -0.396138
0.0981177 0.192191 -0.458094
0.102611 0.155539 -0.443169
0.0811359 0.1458 -0.352095
0.0325326 0.170019 -0.209075
-0.0400616 0.218947 -0.0578052
-0.128121 0.274985 0.0565826
-0.219296 0.31768 0.104231
-0.300387 0.330205 0.0822509
-0.360386 0.304957 0.0116196
-0.392536 0.242405 -0.0708072
-0.394567 0.156192 -0.131152
-0.369671 0.0670067 -0.148749
-0.323736 -0.0114583 -0.125222
-0.26625 -0.0662921 -0.0771155
-0.204469 -0.0900526 -0.0279279
-0.110012 0.101824 0.0403518
-0.102691 0.147708 0.0115274
-0.0783415 0.184908 -0.0553455
-0.0448009 0.203142 -0.157975
-0.0101258 0.202091 -0.275559
0.0175596 0.187803 -0.373739
0.0278822 0.172961 -0.418317
0.0123434 0.169194 -0.392035
-0.0322481 0.184088 -0.297412
-0.100571 0.220068 -0.158597
-0.184249 0.267911 -0.0164338
-0.270554 0.313033 0.0888366
-0.34549 0.339867 0.132579
-0.39714 0.33685 0.115648
-0.418296 0.299767 0.0582926
-0.408093 0.230823 -0.00510313
-0.370114 0.143551 -0.0455473