# vtk DataFile Version 2.0
Func
ASCII
DATASET RECTILINEAR_GRID
DIMENSIONS 21 21 21
X_COORDINATES 21 double
-4.7619
-4.28571
-3.80952
-3.33333
-2.85714
-2.38095
-1.90476
-1.42857
-0.952381
-0.47619
0
0.47619
0.952381
1.42857
1.90476
2.38095
2.85714
3.33333
3.80952
4.28571
4.7619
Y_COORDINATES 21 double
-4.7619
-4.28571
-3.80952
-3.33333
-2.85714
-2.38095
-1.90476
-1.42857
-0.952381
-0.47619
0
0.47619
0.952381
1.42857
1.90476
2.38095
2.85714
3.33333
3.80952
4.28571
4.7619
Z_COORDINATES 21 double
-4.7619
-4.28571
-3.80952
-3.33333
-2.85714
-2.38095
-1.90476
-1.42857
-0.952381
-0.47619
0
0.47619
0.952381
1.42857
1.90476
2.38095
2.85714
3.33333
3.80952
4.28571
4.7619
POINT_DATA 9261
SCALARS data double 3
LOOKUP_TABLE default
-0.0132131 0.0785746 0.152133
-0.0405376 0.123264 0.192743
-0.0802802 0.154614 0.208897
-0.122401 0.159207 0.190522
-0.158338 0.128379 0.135236
-0.179315 0.0667382 0.0513411
-0.181031 -0.00990801 -0.0388509
-0.162553 -0.0789609 -0.112203
-0.128821 -0.118834 -0.148727
-0.0874683 -0.116823 -0.138342
-0.0471585 -0.0782167 -0.0865327
-0.0150723 -0.0191125 -0.0105964
0.00446943 0.0401774 0.0657739
0.0110529 0.0839997 0.11958
0.00738552 0.105417 0.139848
-0.00114613 0.107568 0.125357
-0.00875642 0.0986141 0.0854903
-0.0114628 0.0849678 0.0361758
-0.00879329 0.0719394 -0.00932813
-0.00267132 0.0589325 -0.0389323
0.00368299 0.0462007 -0.0490773
-0.0400146 0.0551379 0.178903
-0.0698014 0.100827 0.222139
-0.111026 0.135998 0.236702
-0.153662 0.145277 0.212567
-0.189482 0.118846 0.148752
-0.210464 0.0599167 0.0537637
-0.21246 -0.0161453 -0.0457409
-0.194928 -0.0856544 -0.124412
-0.162854 -0.125269 -0.160137
-0.123866 -0.121054 -0.141909
-0.086763 -0.0793662 -0.0762222
-0.0584267 -0.0180448 0.0168512
-0.0426376 0.0410867 0.109424
-0.0389309 0.0822465 0.173803
-0.0439321 0.0996698 0.195939
-0.051127 0.0988616 0.172682
-0.0547349 0.0895139 0.114894
-0.0510154 0.0780947 0.0441503
-0.0402344 0.0693953 -0.0209846
-0.0256698 0.0605957 -0.0638513
-0.0115747 0.0504514 -0.0777294
-0.0798659 0.0165911 0.181594
-0.108189 0.0565578 0.221189
-0.143896 0.0916436 0.231121
-0.178598 0.105679 0.203497
-0.206439 0.0883305 0.139078
-0.222612 0.0404771 0.0453809
-0.224494 -0.024977 -0.0497801
-0.211826 -0.0854207 -0.12228
-0.18881 -0.117901 -0.151214
-0.161337 -0.109152 -0.125682
-0.136376 -0.0662453 -0.0522405
-0.119004 -0.00761968 0.0488246
-0.111395 0.0451499 0.148668
-0.112342 0.0776018 0.217659
-0.118029 0.0866058 0.239556
-0.1221 0.0807286 0.208777
-0.119423 0.0710589 0.135888
-0.107166 0.0633468 0.0472263
-0.0865503 0.0612541 -0.0345174
-0.0618356 0.0594723 -0.0888107
-0.0381746 0.0541592 -0.105769
-0.131313 -0.0357612 0.152855
-0.154756 -0.00737907 0.182068
-0.178931 0.0241242 0.18521
-0.199058 0.0426335 0.15699
-0.212888 0.038143 0.0999593
-0.219802 0.00862778 0.0203302
-0.2195 -0.0374135 -0.0571429
-0.212553 -0.0806723 -0.113019
-0.201756 -0.100486 -0.13051
-0.190048 -0.0855634 -0.0995387
-0.181733 -0.0433814 -0.0257443
-0.179304 0.00825676 0.0731137
-0.182683 0.0497654 0.170704
-0.189638 0.0695694 0.238485
-0.196342 0.0681914 0.259521
-0.197151 0.0572866 0.225295
-0.188495 0.0487646 0.144562
-0.168426 0.0467825 0.0460023
-0.138992 0.0527366 -0.0453698
-0.104923 0.0588039 -0.107591
-0.0725069 0.0583161 -0.127457
-0.191243 -0.0962538 0.0911202
-0.20701 -0.08414 0.103141
-0.214913 -0.0597621 0.0970017
-0.214874 -0.0379211 0.0705841
-0.209178 -0.027758 0.0283212
-0.202335 -0.0342998 -0.0253517
-0.196531 -0.0546407 -0.0730223
-0.193531 -0.0745049 -0.103761
-0.194396 -0.0771606 -0.10664
-0.198556 -0.0543685 -0.0734662
-0.20717 -0.0137061 -0.00770584
-0.21984 0.0286901 0.0783775
-0.234012 0.0566055 0.164728
-0.246514 0.0624456 0.227232
-0.253743 0.0508583 0.249492
-0.251821 0.0360472 0.220233
-0.238998 0.0302941 0.143797
-0.214804 0.0353294 0.0479076
-0.181125 0.0491345 -0.0436775
-0.142653 0.0620898 -0.108682
-0.105965 0.0647674 -0.132367
-0.251507 -0.156793 0.00229685
-0.258409 -0.16407 -0.0106852
-0.2487 -0.150451 -0.0306424
-0.226568 -0.12779 -0.0542404
-0.199162 -0.104115 -0.0749738
-0.175522 -0.0865671 -0.091724
-0.160281 -0.0783726 -0.0983063
-0.156369 -0.0711917 -0.0952491
-0.163339 -0.053466 -0.0800308
-0.17723 -0.0209587 -0.0480146
-0.196372 0.0187814 0.000924752
-0.218019 0.0519847 0.063437
-0.237802 0.0667022 0.130012
-0.252318 0.0599521 0.184733
-0.259065 0.0402295 0.212636
-0.256418 0.0238151 0.199469
-0.244686 0.0225873 0.142781
-0.224033 0.0349771 0.0637271
-0.195707 0.0553213 -0.0178046
-0.162528 0.0725201 -0.0815347
-0.129765 0.0754814 -0.110645
-0.306835 -0.209361 -0.0982638
-0.305483 -0.236511 -0.139744
-0.279473 -0.236135 -0.175506
-0.23621 -0.215951 -0.196348
-0.186946 -0.182641 -0.193326
-0.144411 -0.14406 -0.169188
-0.115572 -0.109132 -0.130572
-0.10426 -0.0751863 -0.0908292
-0.108763 -0.0362616 -0.0571076
-0.122456 0.00732054 -0.0289754
-0.141619 0.0480129 -0.00188829
-0.162189 0.0745514 0.0317041
-0.179197 0.0794022 0.0753438
-0.190069 0.0641084 0.123477
-0.194542 0.0400757 0.163281
-0.19371 0.0250253 0.177259
-0.189537 0.0299207 0.154174
-0.182198 0.0492425 0.104153
-0.170779 0.0737259 0.0404174
-0.154747 0.0917379 -0.0194659
-0.13592 0.0911336 -0.0577313
-0.347508 -0.246248 -0.189892
-0.339793 -0.29171 -0.257988
-0.300991 -0.305902 -0.308465
-0.240489 -0.292329 -0.326114
-0.172345 -0.255997 -0.300434
-0.111479 -0.203443 -0.236822
-0.066627 -0.147657 -0.154718
-0.0419144 -0.0905604 -0.080239
-0.0352168 -0.0317633 -0.0303989
-0.0382753 0.0237401 -0.00908898
-0.0463748 0.0681659 -0.0070346
-0.0554159 0.0924332 -0.00496037
-0.0612184 0.0928988 0.0148258
-0.0631202 0.074965 0.0581367
-0.0639435 0.051726 0.114834
-0.0678023 0.0411526 0.164076
-0.0774706 0.0532056 0.184582
-0.0920334 0.0783981 0.171824
-0.107644 0.104066 0.130649
-0.118883 0.118779 0.0752157
-0.122499 0.111148 0.0242327
-0.367285 -0.261801 -0.253796
-0.355422 -0.32186 -0.341182
-0.308543 -0.350822 -0.40223
-0.236364 -0.348023 -0.416368
-0.154347 -0.316206 -0.371391
-0.0780046 -0.258998 -0.274186
-0.0169892 -0.191037 -0.155195
0.0243859 -0.117372 -0.0518466
0.0479429 -0.0424398 0.00981068
0.0623467 0.0244315 0.021751
0.0723968 0.0748672 -0.00248289
0.0813946 0.101344 -0.0325016
0.0919177 0.103209 -0.0368734
0.102221 0.0887531 0.00153545
0.106107 0.0714581 0.0757835
0.0966283 0.0685966 0.162445
0.0704912 0.0887755 0.230136
0.0302293 0.118732 0.257577
-0.0170517 0.143661 0.240715
-0.060544 0.152333 0.189805
-0.0910765 0.135076 0.123604
-0.362743 -0.254108 -0.273445
-0.3493 -0.324188 -0.369544
-0.300378 -0.367563 -0.435754
-0.22422 -0.379095 -0.446817
-0.136062 -0.358994 -0.388807
-0.0505522 -0.306477 -0.268623
0.0225211 -0.235397 -0.123624
0.0791012 -0.152415 -1.09066e-05
0.120188 -0.0659795 0.0683092
0.15375 0.0106945 0.0694502
0.18408 0.0681664 0.0199479
0.213345 0.0997833 -0.0406371
0.242251 0.107031 -0.0689935
0.266681 0.100266 -0.0377674
0.277344 0.092403 0.0496311
0.264818 0.0993301 0.168181
0.225293 0.128142 0.277822
0.162631 0.162202 0.341534
0.0865208 0.185569 0.346875
0.0125568 0.187307 0.300157
-0.0444034 0.159851 0.219808
-0.334577 -0.224977 -0.241759
-0.322772 -0.300255 -0.333721
-0.278314 -0.356544 -0.398385
-0.206755 -0.38479 -0.407076
-0.121651 -0.382175 -0.344246
-0.0356835 -0.342529 -0.215031
0.0419322 -0.276724 -0.0583873
0.10785 -0.191589 0.0741595
0.161946 -0.0986493 0.142638
0.210666 -0.0144239 0.131887
0.257685 0.0500378 0.0595815
0.304316 0.0882213 -0.028647
0.349783 0.102901 -0.0807196
0.388224 0.105819 -0.0610302
0.408131 0.108871 0.0308198
0.398094 0.126253 0.169645
0.353435 0.163586 0.30942
0.278312 0.201497 0.400857
0.183599 0.223644 0.424477
0.0879838 0.219182 0.382818
0.0107121 0.18284 0.293457
-0.286634 -0.180695 -0.163285
-0.279695 -0.256668 -0.239379
-0.245821 -0.323521 -0.296758
-0.187185 -0.369034 -0.304825
-0.114521 -0.386906 -0.246475
-0.0378201 -0.365421 -0.123332
0.0348779 -0.310898 0.0296525
0.10135 -0.229248 0.159411
0.1603 -0.134153 0.221966
0.216187 -0.0448089 0.199523
0.272313 0.0255851 0.108707
0.329833 0.0699566 -0.00256578
0.387322 0.091636 -0.0773288
0.438144 0.103319 -0.0742119
0.469864 0.116058 0.0111739
0.469623 0.142616 0.155136
0.431305 0.187429 0.309243
0.357868 0.229219 0.417214
0.259579 0.25157 0.454336
0.155816 0.243351 0.419616
0.068073 0.201077 0.329358
-0.224956 -0.129919 -0.0543977
-0.225111 -0.203225 -0.107157
-0.205993 -0.277659 -0.154344
-0.166366 -0.33881 -0.16485
-0.113481 -0.376654 -0.119951
-0.0543158 -0.374628 -0.0162791
0.00466068 -0.333915 0.119977
0.0626062 -0.259007 0.237695
0.117211 -0.165024 0.29093
0.170861 -0.0731936 0.259748
0.226914 0.000841364 0.157461
0.287206 0.0490435 0.0302858
0.350638 0.0748844 -0.0640512
0.410882 0.0918602 -0.081113
0.455965 0.110807 -0.0125435
0.47215 0.143671 0.121081
0.45136 0.194132 0.272743
0.393876 0.239855 0.385185
0.307623 0.264379 0.430494
0.210129 0.255875 0.404565
0.122683 0.211872 0.322122
-0.156357 -0.081719 0.0601291
-0.163898 -0.150296 0.0318857
-0.160356 -0.228937 -0.00591584
-0.141825 -0.301995 -0.0227525
-0.111997 -0.356001 0.00184617
-0.0748718 -0.370899 0.0771425
-0.0351661 -0.343144 0.188606
0.00770375 -0.275874 0.28981
0.0506665 -0.185111 0.334697
0.094255 -0.0934472 0.301525
0.142265 -0.0189156 0.198255
0.197845 0.0294123 0.0657382
0.26098 0.0550345 -0.0414806
0.326544 0.0723048 -0.078656
0.384194 0.092713 -0.0338619
0.419961 0.12818 0.0767518
0.423651 0.182039 0.21107
0.391981 0.231696 0.31635
0.329303 0.260519 0.363767
0.24933 0.255673 0.346919
0.170856 0.214327 0.278708
-0.0880363 -0.0435151 0.154566
-0.101231 -0.106082 0.146009
-0.110676 -0.184875 0.11461
-0.110896 -0.264166 0.088731
-0.102331 -0.327625 0.0906188
-0.0865712 -0.353798 0.135324
-0.0666161 -0.335754 0.220171
-0.0407375 -0.275533 0.305096
-0.0125593 -0.189583 0.345697
0.0169691 -0.101086 0.318917
0.0521684 -0.0299741 0.226246
0.0976671 0.0139187 0.100585
0.154866 0.0342114 -0.00986957
0.220345 0.0462302 -0.0626976
0.286182 0.0629878 -0.0433014
0.338944 0.0971135 0.0371862
0.366929 0.152088 0.143976
0.363291 0.20564 0.232775
0.328404 0.240821 0.276074
0.271286 0.243268 0.266254
0.206937 0.208997 0.214511
-0.025701 -0.0188809 0.208959
-0.040753 -0.074357 0.211337
-0.0576189 -0.148611 0.180434
-0.0700514 -0.227758 0.143259
-0.0763797 -0.293197 0.123782
-0.0760163 -0.324035 0.141597
-0.07091 -0.31135 0.204049
-0.0587154 -0.257163 0.277979
-0.0434329 -0.177696 0.321838
-0.0271923 -0.0958668 0.311555
-0.00547689 -0.0326317 0.241787
0.0274861 0.00201985 0.136051
0.0743789 0.0121243 0.0340723
0.13359 0.0140711 -0.0261985
0.199948 0.0229678 -0.0286663
0.261632 0.0528017 0.0205709
0.306212 0.107059 0.0952401
0.324504 0.164529 0.161178
0.313537 0.20774 0.194191
0.277781 0.220592 0.186891
0.227954 0.196675 0.148912
0.0266885 -0.00655038 0.217372
0.0145779 -0.0537087 0.220411
-0.00240318 -0.119253 0.185396
-0.0185663 -0.19189 0.136737
-0.0307456 -0.2524 0.100882
-0.037459 -0.281618 0.0998151
-0.0395244 -0.2704 0.147546
-0.0349694 -0.221003 0.217524
-0.0278873 -0.14946 0.272064
-0.0212175 -0.0774334 0.286461
-0.010701 -0.0258512 0.249095
0.00989418 -0.00414662 0.173929
0.0440379 -0.00757834 0.0912283
0.0916383 -0.0187837 0.0329289
0.150197 -0.0203232 0.0153286
0.209999 0.00291199 0.0369181
0.259311 0.0545915 0.0798659
0.288319 0.114987 0.119829
0.291976 0.166316 0.137645
0.271378 0.190622 0.127357
0.233022 0.178797 0.0973488
0.0623088 -0.00263731 0.185575
0.0564769 -0.0403626 0.182404
0.0449926 -0.0937843 0.142618
0.0321903 -0.154775 0.0871324
0.0213168 -0.2049 0.0428899
0.0146623 -0.227835 0.0325816
0.0117595 -0.215407 0.072216
0.0145452 -0.170411 0.141264
0.0187553 -0.108245 0.207323
0.021137 -0.0484998 0.246427
0.0250552 -0.0109586 0.242774
0.0361459 -0.0038406 0.202104
0.0577646 -0.021601 0.14537
0.0906786 -0.0463514 0.0974082
0.134489 -0.0588869 0.0732234
0.182329 -0.0433479 0.0745894
0.224612 0.00406301 0.0909222
0.252823 0.0654669 0.106335
0.261129 0.122848 0.10754
0.248821 0.157201 0.0912843
0.218878 0.157076 0.0645711
0.0822715 -0.00406152 0.130402
0.0839076 -0.0315671 0.118177
0.0801435 -0.0706126 0.0748041
0.0735715 -0.11619 0.0177394
0.0673821 -0.152433 -0.0269565
0.0640828 -0.16641 -0.0392462
0.0640274 -0.151924 -0.0041296
0.0684286 -0.112236 0.0631293
0.0739564 -0.0611919 0.136274
0.0770708 -0.0155318 0.193759
0.0795288 0.00722799 0.218318
0.0852937 0.000541378 0.209733
0.0967074 -0.0294817 0.18076
0.114705 -0.0653321 0.148911
0.140411 -0.0872837 0.126496
0.170062 -0.0793835 0.116861
0.197346 -0.0378012 0.114857
0.216275 0.0215419 0.110843
0.221749 0.0813323 0.0979617
0.212367 0.122624 0.0749738
0.188818 0.132471 0.0480835
0.0862146 -0.00675164 0.0701684
0.0939341 -0.0242413 0.0500536
0.0970125 -0.0487359 0.00674999
0.0968563 -0.0782473 -0.045858
0.0959762 -0.100277 -0.0853519
0.0969504 -0.105372 -0.0948489
0.100702 -0.0895498 -0.06331
0.108262 -0.0564091 -0.00131255
0.116927 -0.0173856 0.0712337
0.123427 0.0139814 0.136513
0.127579 0.0231709 0.178308
0.131173 0.00548217 0.193083
0.135088 -0.0328082 0.187362
0.140109 -0.07553 0.17217
0.148043 -0.103756 0.156386
0.158201 -0.102427 0.143598
0.167711 -0.0677524 0.131966
0.173847 -0.0133923 0.116376
0.173275 0.0446122 0.0945051
0.16451 0.0886385 0.0672032
0.146673 0.105626 0.0398884
0.0754596 -0.00735959 0.019867
0.0859271 -0.0164003 -0.0034019
0.0927358 -0.0283727 -0.0408727
0.096452 -0.0435474 -0.0833001
0.098866 -0.0530516 -0.113186
0.102664 -0.0508949 -0.11811
0.10895 -0.0350671 -0.0915392
0.118406 -0.00911171 -0.0404791
0.129121 0.0179827 0.0218237
0.138255 0.0357838 0.0821433
0.144545 0.0336886 0.127469
0.147782 0.00887757 0.153394
0.147675 -0.0326417 0.162334
0.144343 -0.0769364 0.160174
0.140083 -0.107086 0.152369
0.135809 -0.109983 0.14155
0.131523 -0.082441 0.127696
0.127158 -0.0355997 0.108737
0.12135 0.0166234 0.0848028
0.113059 0.0587234 0.0580002
0.100853 0.0791524 0.0333011
0.00116917 0.137674 0.175123
-0.0279694 0.205935 0.222086
-0.0723743 0.256002 0.240981
-0.121541 0.267956 0.220655
-0.165685 0.228819 0.158678
-0.194134 0.143241 0.0634745
-0.201247 0.0323002 -0.0407757
-0.184376 -0.0735398 -0.128523
-0.148079 -0.145443 -0.176906
-0.100003 -0.164661 -0.172897
-0.0495886 -0.135741 -0.120829
-0.00517316 -0.0776267 -0.0380488
0.0271719 -0.0147563 0.0502805
0.0455112 0.0345636 0.118486
0.0508303 0.062238 0.153601
0.0473478 0.0721715 0.152437
0.0403882 0.0740042 0.122243
0.0340537 0.0730945 0.0774217
0.0296794 0.0717533 0.0309331
0.0266161 0.067 -0.00315223
0.0239585 0.0565935 -0.019835
-0.0311161 0.12135 0.212918
-0.0601182 0.195507 0.265032
-0.102211 0.253263 0.283144
-0.147846 0.271281 0.256068
-0.188787 0.234553 0.182863
-0.215465 0.147067 0.072711
-0.222832 0.0305298 -0.0448931
-0.208477 -0.0817542 -0.141529
-0.176635 -0.157756 -0.191659
-0.133882 -0.176482 -0.180824
-0.0889756 -0.143971 -0.114244
-0.0493428 -0.0822851 -0.0123579
-0.0203859 -0.0189121 0.0948136
-0.00331968 0.026888 0.176014
0.00280907 0.0483602 0.214698
0.00279759 0.052542 0.205027
0.00123629 0.0518304 0.155676
0.00175001 0.0525097 0.0870351
0.00467304 0.0570252 0.0186834
0.00842864 0.0593134 -0.0301136
0.0116836 0.0548949 -0.0505514
-0.0803974 0.0856588 0.223505
-0.104907 0.157651 0.273631
-0.136548 0.218347 0.287496
-0.168598 0.242323 0.256342
-0.1965 0.213326 0.181257
-0.214905 0.133689 0.0708618
-0.221215 0.0234254 -0.0436011
-0.213317 -0.0836273 -0.134971
-0.194199 -0.154607 -0.179014
-0.167595 -0.168525 -0.161383
-0.139229 -0.132838 -0.087306
-0.113923 -0.0717103 0.0225085
-0.0948835 -0.0140014 0.136897
-0.0826426 0.0213213 0.222346
-0.0761537 0.0305428 0.259749
-0.071382 0.0248988 0.24063
-0.0649127 0.0195994 0.173242
-0.0543856 0.021429 0.0832943
-0.0407946 0.0329204 -0.00416793
-0.0266963 0.0448947 -0.0653624
-0.0139706 0.0495037 -0.0879139
-0.143844 0.0312107 0.197569
-0.160593 0.0929307 0.237402
-0.175693 0.151465 0.244246
-0.187092 0.18073 0.212558
-0.19525 0.164282 0.145401
-0.200282 0.102084 0.0503821
-0.202758 0.0100295 -0.0444421
-0.201877 -0.0805005 -0.117286
-0.19879 -0.138242 -0.148948
-0.193085 -0.14395 -0.126216
-0.186652 -0.106237 -0.0533743
-0.18086 -0.0499227 0.0517283
-0.175804 -0.00321693 0.160891
-0.170812 0.0169396 0.242014
-0.16507 0.0110689 0.275407
-0.15564 -0.00555239 0.249367
-0.141357 -0.0153424 0.170479
-0.121043 -0.0117681 0.0675024
-0.0969701 0.00712871 -0.03161
-0.0720695 0.0289948 -0.101269
-0.0495295 0.0427635 -0.125061
-0.215867 -0.0366605 0.131083
-0.222952 0.00743091 0.15157
-0.217775 0.0584508 0.147938
-0.203874 0.0914378 0.118566
-0.187384 0.090629 0.068862
-0.17473 0.053166 0.00437032
-0.169795 -0.0109886 -0.0550722
-0.173384 -0.075425 -0.0978081
-0.184786 -0.112851 -0.111982
-0.199245 -0.107255 -0.0870539
-0.214612 -0.0679913 -0.0250539
-0.228663 -0.0190662 0.0625188
-0.238075 0.0138492 0.15493
-0.240857 0.0172451 0.225571
-0.236279 -0.00362925 0.255732
-0.223542 -0.0301209 0.230663
-0.203526 -0.0430833 0.152545
-0.177022 -0.0369645 0.0500235
-0.146334 -0.0117851 -0.0504498
-0.11473 0.018096 -0.122897
-0.0860443 0.0385275 -0.148598
-0.285838 -0.108721 0.0301065
-0.282657 -0.0875126 0.0212635
-0.256993 -0.0492849 0.0013451
-0.217266 -0.0156529 -0.0246268
-0.175202 -0.00121784 -0.0487562
-0.14275 -0.0110007 -0.0692309
-0.126709 -0.0420335 -0.07929
-0.129376 -0.0743917 -0.0807901
-0.148564 -0.0864525 -0.0721275
-0.175689 -0.066737 -0.0476011
-0.205192 -0.0250552 -0.00549948
-0.232121 0.0165187 0.0528187
-0.25055 0.0362006 0.118892
-0.257889 0.024787 0.175881
-0.254241 -0.00813293 0.207092
-0.241063 -0.0412468 0.194635
-0.221516 -0.0549065 0.133837
-0.197135 -0.0458832 0.0469597
-0.169875 -0.0162786 -0.0436
-0.141358 0.018078 -0.114193
-0.11465 0.0410792 -0.143533
-0.346849 -0.175792 -0.0885095
-0.334961 -0.179572 -0.132008
-0.29186 -0.157897 -0.171172
-0.229177 -0.127394 -0.193987
-0.163089 -0.101108 -0.189496
-0.109865 -0.0850378 -0.160597
-0.0787365 -0.0832014 -0.115721
-0.0733035 -0.0824256 -0.0717945
-0.0899415 -0.0673645 -0.0389446
-0.117523 -0.0319188 -0.0169903
-0.148277 0.0138764 0.000492743
-0.175986 0.0505067 0.0245854
-0.193693 0.0607104 0.0619191
-0.199402 0.0397544 0.107791
-0.195218 0.000299435 0.148197
-0.185052 -0.0344024 0.161641
-0.173702 -0.0454597 0.134344
-0.162715 -0.0329911 0.0770675
-0.15174 -0.00158367 0.00507046
-0.139267 0.0327259 -0.0612194
-0.125382 0.0526939 -0.0993111
-0.387263 -0.228538 -0.200715
-0.369435 -0.256619 -0.277708
-0.314033 -0.253599 -0.335512
-0.234436 -0.230835 -0.354796
-0.149256 -0.199383 -0.322448
-0.0772185 -0.164187 -0.245087
-0.0292375 -0.134911 -0.146548
-0.00911296 -0.104222 -0.0589339
-0.0128176 -0.0632907 -0.00411587
-0.0281307 -0.011633 0.0125759
-0.0465457 0.040555 0.00276493
-0.062293 0.0764631 -0.00900536
-0.0692654 0.0832783 0.000213303
-0.0673282 0.0603133 0.0388423
-0.0614598 0.021786 0.0959521
-0.0582465 -0.00873126 0.14626
-0.0628717 -0.0135838 0.165088
-0.0754667 0.00296039 0.147436
-0.0924372 0.0334258 0.0993533
-0.10741 0.0624189 0.0373655
-0.115785 0.0739804 -0.0148899
-0.401148 -0.259428 -0.283006
-0.380323 -0.308393 -0.385671
-0.318634 -0.324532 -0.457601
-0.22929 -0.314106 -0.473031
-0.131648 -0.285241 -0.416488
-0.0447806 -0.240428 -0.297136
0.0199877 -0.192416 -0.152458
0.0587089 -0.138597 -0.028005
0.0749667 -0.0760729 0.0437125
0.0804589 -0.00969603 0.0523348
0.0831459 0.050123 0.0143364
0.0872342 0.0891533 -0.0328594
0.096847 0.0986437 -0.0504787
0.109691 0.0812949 -0.0171952
0.11769 0.0513256 0.059496
0.111976 0.031284 0.151187
0.0874272 0.0364916 0.221928
0.0461525 0.0580388 0.248186
-0.00445869 0.0862979 0.226252
-0.0525891 0.106459 0.168144
-0.0880944 0.104994 0.0973939
-0.3872 -0.263972 -0.313774
-0.366118 -0.328641 -0.429637
-0.304745 -0.363571 -0.509345
-0.214191 -0.369333 -0.521491
-0.112776 -0.350819 -0.448283
-0.018146 -0.306539 -0.299776
0.058877 -0.249603 -0.122363
0.114712 -0.180739 0.0279708
0.151909 -0.102255 0.109653
0.180374 -0.0239241 0.107923
0.206737 0.0433476 0.0428576
0.233243 0.087566 -0.0373602
0.261606 0.103617 -0.080293
0.287179 0.0970583 -0.053134
0.299144 0.0810259 0.0401975
0.286829 0.0760173 0.169105
0.245222 0.0943485 0.287599
0.178399 0.122185 0.354405
0.0968376 0.148182 0.35666
0.0171857 0.158301 0.301819
-0.0448583 0.141771 0.212822
-0.348782 -0.241827 -0.283361
-0.330788 -0.316208 -0.39662
-0.276557 -0.367848 -0.475777
-0.193865 -0.392285 -0.485387
-0.0985664 -0.390557 -0.405543
-0.00555344 -0.35603 -0.244991
0.0755704 -0.299574 -0.0527275
0.142093 -0.223871 0.108939
0.195167 -0.135605 0.191635
0.2421 -0.0489121 0.177168
0.288051 0.0243183 0.0872601
0.333699 0.0738367 -0.0226554
0.378756 0.0976662 -0.0900851
0.416951 0.103886 -0.0730666
0.435699 0.104156 0.0282322
0.423031 0.116379 0.182584
0.373595 0.149562 0.336783
0.292218 0.185055 0.435491
0.190869 0.210001 0.458197
0.0892205 0.210881 0.407977
0.00730828 0.17993 0.306469
-0.292342 -0.197726 -0.196057
-0.280803 -0.275404 -0.291812
-0.239997 -0.340417 -0.362984
-0.173755 -0.38406 -0.371966
-0.0944788 -0.402927 -0.296932
-0.0134634 -0.384796 -0.143
0.0614232 -0.336161 0.0449871
0.128787 -0.260457 0.202892
0.188342 -0.167854 0.278013
0.244519 -0.0762441 0.249654
0.301362 0.000807075 0.138769
0.358941 0.0540448 0.0037068
0.415912 0.0840178 -0.0874308
0.465469 0.101146 -0.0863154
0.494622 0.116054 0.0108529
0.490517 0.144307 0.17415
0.446686 0.191877 0.347064
0.366877 0.235889 0.466007
0.262476 0.261936 0.504714
0.1536 0.256508 0.462134
0.0625196 0.214198 0.358008
-0.225712 -0.140467 -0.0707142
-0.222984 -0.216176 -0.138935
-0.199813 -0.290503 -0.197928
-0.156193 -0.35157 -0.209697
-0.100628 -0.391187 -0.150554
-0.040473 -0.391939 -0.0199191
0.0184134 -0.354837 0.147404
0.0762533 -0.283355 0.289568
0.131548 -0.190437 0.351895
0.186077 -0.0970801 0.311824
0.243409 -0.0191068 0.186934
0.304147 0.0345772 0.0338721
0.367022 0.0665423 -0.0783566
0.425832 0.0895332 -0.0979794
0.468553 0.114114 -0.01711
0.481792 0.154283 0.137616
0.457168 0.213652 0.310719
0.395495 0.266083 0.437086
0.305544 0.295519 0.486768
0.205188 0.28793 0.455005
0.116465 0.239339 0.359222
-0.156397 -0.0804944 0.0631067
-0.162906 -0.150427 0.0249015
-0.158063 -0.229883 -0.0221129
-0.139032 -0.304427 -0.040926
-0.110553 -0.361388 -0.00603187
-0.0761396 -0.379295 0.0902238
-0.0395841 -0.35364 0.226782
0.00105262 -0.287758 0.347327
0.0434399 -0.196871 0.3973
0.0872931 -0.104442 0.352633
0.136314 -0.0288795 0.225071
0.192537 0.0208031 0.0652554
0.255634 0.0488774 -0.0613971
0.320865 0.0705542 -0.102651
0.378209 0.097676 -0.0467695
0.414078 0.143794 0.0845998
0.417766 0.211027 0.241072
0.385959 0.271126 0.362149
0.323383 0.306315 0.416587
0.243625 0.301576 0.39681
0.166216 0.252614 0.317597
-0.090541 -0.0271359 0.1748
-0.104346 -0.0887531 0.161812
-0.114992 -0.168564 0.123881
-0.117801 -0.25081 0.0951075
-0.114112 -0.318684 0.102777
-0.104497 -0.348594 0.161792
-0.0908473 -0.331633 0.265345
-0.0696723 -0.270926 0.364609
-0.0438202 -0.183522 0.407065
-0.0149873 -0.0946024 0.367531
0.0208962 -0.0250845 0.250406
0.067583 0.015728 0.0972128
0.126018 0.0335689 -0.0338218
0.193278 0.0462171 -0.0928215
0.261962 0.0681141 -0.0649051
0.318812 0.113497 0.03422
0.351362 0.184114 0.162193
0.352076 0.250692 0.267578
0.321158 0.293801 0.320071
0.267173 0.296646 0.310368
0.205808 0.253625 0.250794
-0.0323152 0.0138134 0.240491
-0.0490137 -0.0377831 0.242866
-0.0688115 -0.112753 0.20753
-0.0860299 -0.196339 0.166579
-0.0999339 -0.267923 0.14886
-0.108351 -0.30366 0.175265
-0.112003 -0.291382 0.251346
-0.106674 -0.23489 0.336296
-0.0952656 -0.152409 0.380863
-0.0803935 -0.0699567 0.358845
-0.0578696 -0.0104258 0.266591
-0.0225354 0.0167761 0.134731
0.0276492 0.0187678 0.0119083
0.0914699 0.0158669 -0.0566517
0.164261 0.0260177 -0.0539238
0.23404 0.0652284 0.0106481
0.287257 0.135137 0.10431
0.313539 0.206968 0.186477
0.30942 0.259778 0.229771
0.27864 0.274515 0.224799
0.232595 0.242673 0.181672
0.016011 0.0410452 0.252213
0.00192444 0.000730287 0.257693
-0.0186895 -0.0651012 0.219381
-0.04075 -0.143375 0.166161
-0.0619153 -0.21172 0.129197
-0.0788992 -0.247002 0.132856
-0.0910512 -0.235842 0.191253
-0.0944782 -0.182471 0.271282
-0.0919777 -0.106331 0.327953
-0.0865359 -0.0330654 0.334244
-0.0742939 0.0133849 0.278827
-0.0494661 0.0239137 0.181079
-0.00947763 0.0069136 0.0788924
0.0456852 -0.0151611 0.0110811
0.113845 -0.0205204 -0.00445423
0.184628 0.0084123 0.0288337
0.245039 0.0738966 0.0878872
0.283811 0.148646 0.142496
0.295288 0.210927 0.170162
0.279885 0.239298 0.162794
0.244717 0.221838 0.128776
0.0486778 0.0563235 0.216025
0.0412487 0.0277592 0.215797
0.0264434 -0.0256001 0.173224
0.00777351 -0.0931294 0.112887
-0.0122492 -0.152383 0.0660879
-0.0294766 -0.18236 0.058693
-0.0428476 -0.169833 0.107853
-0.0482023 -0.119634 0.187513
-0.0484786 -0.0515184 0.258614
-0.0465022 0.0103071 0.29466
-0.0394227 0.0420789 0.278867
-0.022062 0.0354823 0.220716
0.00771689 -0.000117111 0.147376
0.0503685 -0.0410202 0.0898336
0.105531 -0.0624383 0.065333
0.165386 -0.0455534 0.0749731
0.219141 0.0126764 0.104158
0.256915 0.0873479 0.131703
0.27235 0.156434 0.14108
0.264294 0.196985 0.127178
0.236279 0.194156 0.0964693
0.0674347 0.0609309 0.151635
0.0683263 0.0438723 0.141272
0.0623769 0.00507845 0.095171
0.0509906 -0.0474697 0.0334768
0.036769 -0.0935688 -0.0135501
0.0238889 -0.115189 -0.0228942
0.0144244 -0.100704 0.0218567
0.0116081 -0.055139 0.100918
0.0138295 0.00271125 0.182144
0.0182079 0.0513324 0.241396
0.0257722 0.0685783 0.259535
0.039781 0.0473396 0.238704
0.0609658 -0.00268107 0.196536
0.0894634 -0.058021 0.155832
0.126195 -0.0927348 0.131571
0.166405 -0.0874557 0.127357
0.203039 -0.0385036 0.135198
0.22916 0.0321048 0.140682
0.23951 0.103417 0.134085
0.232529 0.152376 0.112324
0.209406 0.162338 0.0807475
0.0721911 0.0583633 0.0807481
0.0801374 0.051369 0.0608676
0.0824938 0.027275 0.0148695
0.0792109 -0.00906415 -0.0413332
0.0722319 -0.0409038 -0.0819264
0.0655076 -0.0537414 -0.087577
0.0616423 -0.0381711 -0.0460296
0.0636428 0.000657348 0.0283557
0.0706758 0.0465033 0.110793
0.0802286 0.0813392 0.181068
0.0911656 0.0858478 0.220706
0.104234 0.0544035 0.227554
0.11837 -0.00365638 0.211852
0.133194 -0.06665 0.189004
0.150052 -0.109438 0.170572
0.167505 -0.113547 0.161029
0.182627 -0.0747077 0.156668
0.192324 -0.0115997 0.148349
0.193673 0.0567492 0.130996
0.185363 0.108887 0.103806
0.166767 0.128006 0.0712663
0.0629962 0.0517642 0.022502
0.074168 0.0522435 -0.00195228
0.0813178 0.0409079 -0.0415756
0.0835279 0.0197637 -0.0861301
0.082118 0.00127751 -0.115592
0.0807883 -0.00389788 -0.115843
0.0821312 0.0112936 -0.0798352
0.0883295 0.0422255 -0.0175235
0.0991165 0.0755764 0.0542724
0.112348 0.0968569 0.120291
0.125822 0.0910876 0.165453
0.138107 0.0543537 0.186178
0.14705 -0.00492993 0.187615
0.151392 -0.068114 0.179095
0.153041 -0.112628 0.168404
0.152376 -0.122279 0.159306
0.149949 -0.0930489 0.150652
0.14587 -0.0398651 0.13723
0.13969 0.0211335 0.116509
0.130684 0.0710182 0.0893036
0.117384 0.0948503 0.0596935
0.0279603 0.201805 0.184204
0.00164985 0.295336 0.234206
-0.04222 0.366415 0.254895
-0.0933675 0.38957 0.233987
-0.141305 0.347522 0.169523
-0.175498 0.241573 0.0690772
-0.188654 0.0983058 -0.0430924
-0.17691 -0.0455149 -0.140913
-0.142587 -0.15362 -0.199981
-0.0926014 -0.201601 -0.204846
-0.0360512 -0.191949 -0.157408
0.0182883 -0.14477 -0.0730375
0.0627821 -0.0867381 0.0239266
0.093287 -0.036956 0.107332
0.108599 -0.00438561 0.161756
0.109728 0.0160127 0.181342
0.101567 0.0342203 0.169406
0.0880949 0.0533482 0.13677
0.072432 0.0698684 0.0943554
0.0562866 0.0769561 0.0575486
0.0420292 0.0705574 0.0316804
-0.00545112 0.197038 0.232994
-0.0280458 0.302176 0.291114
-0.0649458 0.385282 0.312326
-0.10777 0.415938 0.284016
-0.148535 0.37397 0.205717
-0.178261 0.26048 0.0864302
-0.190778 0.104209 -0.0434041
-0.18241 -0.0533323 -0.154329
-0.154551 -0.17084 -0.218765
-0.112126 -0.220819 -0.219174
-0.0629147 -0.20751 -0.158057
-0.0141606 -0.155534 -0.053875
0.0272972 -0.0962514 0.0638469
0.05777 -0.0505691 0.162682
0.0754455 -0.0263107 0.223225
0.0809793 -0.0145123 0.236308
0.0781772 -0.00120163 0.206226
0.0703705 0.0187117 0.149633
0.0596644 0.0422173 0.0850464
0.0472572 0.0588015 0.0332758
0.0358339 0.0615308 0.00361607
-0.0604561 0.170562 0.253967
-0.0750719 0.278418 0.312767
-0.0961412 0.368155 0.331005
-0.119356 0.405566 0.298245
-0.141531 0.368634 0.216204
-0.158697 0.257503 0.0941602
-0.168237 0.100656 -0.0349494
-0.166928 -0.0577301 -0.142874
-0.154278 -0.173628 -0.203305
-0.131394 -0.21887 -0.198622
-0.102083 -0.199813 -0.131309
-0.0701629 -0.144986 -0.0201321
-0.0398096 -0.0892135 0.104094
-0.0140057 -0.0545679 0.206324
0.00510958 -0.0458738 0.264467
0.0166214 -0.0490084 0.266664
0.0227763 -0.0455238 0.216757
0.0253785 -0.0282286 0.136872
0.0248312 0.0012405 0.052247
0.0213092 0.0292774 -0.0115441
0.0175522 0.04465 -0.0417257
-0.131729 0.122114 0.234858
-0.135842 0.222662 0.284712
-0.135987 0.312272 0.296588
-0.133252 0.354981 0.263634
-0.130625 0.328035 0.189389
-0.130483 0.230146 0.0828106
-0.134025 0.0868329 -0.0260138
-0.139933 -0.0585299 -0.114858
-0.145528 -0.162015 -0.163077
-0.146763 -0.19687 -0.154513
-0.142972 -0.171477 -0.0907784
-0.133691 -0.116854 0.0124021
-0.119352 -0.0692907 0.127506
-0.101343 -0.0504405 0.221202
-0.0822717 -0.0609169 0.271001
-0.0644223 -0.0817488 0.261983
-0.048464 -0.0902294 0.196723
-0.0342512 -0.0774122 0.101139
-0.0232486 -0.0432517 0.00388481
-0.0155825 -0.0045445 -0.0676442
-0.0100405 0.0237591 -0.0961223
-0.210772 0.056195 0.168595
-0.203903 0.139811 0.198318
-0.181357 0.222202 0.199367
-0.150338 0.26797 0.169512
-0.12025 0.254744 0.114766
-0.100079 0.179283 0.0420586
-0.0948793 0.0617739 -0.0270277
-0.105336 -0.0581794 -0.081764
-0.126939 -0.139785 -0.110284
-0.150675 -0.159486 -0.0998804
-0.171661 -0.127273 -0.0500222
-0.185223 -0.0749448 0.0304186
-0.187705 -0.0381367 0.122272
-0.178529 -0.0366328 0.198666
-0.160215 -0.066349 0.238778
-0.137348 -0.104344 0.224544
-0.112904 -0.124644 0.154899
-0.0893419 -0.116885 0.0567763
-0.0688025 -0.0804997 -0.0428897
-0.0523528 -0.0338884 -0.11636
-0.0397317 0.00460474 -0.143164
-0.285544 -0.0185206 0.0606044
-0.267997 0.041054 0.0581058
-0.224169 0.109632 0.0413744