# vtk DataFile Version 2.0
Func
ASCII
DATASET RECTILINEAR_GRID
DIMENSIONS 21 21 21
X_COORDINATES 21 double
-4.7619
-4.28571
-3.80952
-3.33333
-2.85714
-2.38095
-1.90476
-1.42857
-0.952381
-0.47619
0
0.47619
0.952381
1.42857
1.90476
2.38095
2.85714
3.33333
3.80952
4.28571
4.7619
Y_COORDINATES 21 double
-4.7619
-4.28571
-3.80952
-3.33333
-2.85714
-2.38095
-1.90476
-1.42857
-0.952381
-0.47619
0
0.47619
0.952381
1.42857
1.90476
2.38095
2.85714
3.33333
3.80952
4.28571
4.7619
Z_COORDINATES 21 double
-4.7619
-4.28571
-3.80952
-3.33333
-2.85714
-2.38095
-1.90476
-1.42857
-0.952381
-0.47619
0
0.47619
0.952381
1.42857
1.90476
2.38095
2.85714
3.33333
3.80952
4.28571
4.7619
POINT_DATA 9261
SCALARS data double 3
LOOKUP_TABLE default
-0.21862 -0.0928258 -0.096921
-0.205554 -0.102467 -0.0898831
-0.166305 -0.0999968 -0.0606578
-0.103651 -0.0887583 -0.0158423
-0.0243529 -0.0732882 0.0348942
0.0614086 -0.0611408 0.0781262
0.144081 -0.0572316 0.101397
0.214204 -0.0664452 0.0949375
0.264463 -0.0870872 0.0577015
0.291366 -0.11478 -0.0055797
0.292369 -0.142309 -0.0852777
0.269163 -0.16224 -0.168328
0.227562 -0.167796 -0.239606
0.174653 -0.15411 -0.284606
0.116752 -0.121381 -0.295111
0.0593345 -0.0731322 -0.269246
0.00697605 -0.0180443 -0.213227
-0.0366832 0.0334151 -0.141382
-0.0685903 0.071843 -0.0714314
-0.0875913 0.0923141 -0.016759
-0.0937095 0.092798 0.0143336
-0.274318 -0.0860922 -0.111503
-0.259161 -0.105878 -0.094728
-0.209513 -0.117903 -0.0508802
-0.128555 -0.122831 0.0100717
-0.0250677 -0.12182 0.0750722
0.0875304 -0.119673 0.129964
0.195379 -0.118995 0.159443
0.285658 -0.123712 0.152234
0.348101 -0.133281 0.107038
0.377811 -0.145703 0.030815
0.372265 -0.155458 -0.0652192
0.333832 -0.15702 -0.165849
0.27132 -0.145564 -0.25334
0.194811 -0.117957 -0.310528
0.113704 -0.0763874 -0.327271
0.0359028 -0.025692 -0.300355
-0.0320713 0.0256188 -0.236568
-0.0852875 0.0689329 -0.15348
-0.120403 0.0965983 -0.0715396
-0.137112 0.106295 -0.00759628
-0.137179 0.0980868 0.0281941
-0.29972 -0.071568 -0.109985
-0.282776 -0.104499 -0.0837373
-0.227188 -0.136898 -0.0277204
-0.135989 -0.165056 0.0443654
-0.0186784 -0.185249 0.117407
0.109802 -0.197244 0.17822
0.232961 -0.200289 0.209902
0.334681 -0.197738 0.201619
0.40256 -0.190894 0.153099
0.431049 -0.180474 0.0727571
0.416677 -0.164339 -0.0279337
0.362803 -0.140208 -0.133674
0.280601 -0.106463 -0.226455
0.183339 -0.062946 -0.288538
0.0827943 -0.0138923 -0.308927
-0.0106731 0.0342827 -0.28338
-0.088887 0.0742496 -0.218169
-0.146024 0.101046 -0.132941
-0.179169 0.110636 -0.0488208
-0.189478 0.104658 0.0159358
-0.180713 0.0866773 0.0499485
-0.288421 -0.0527475 -0.0921554
-0.270486 -0.0997501 -0.0580858
-0.214678 -0.154968 0.00447312
-0.123283 -0.208582 0.0806439
-0.0056418 -0.251649 0.153989
0.123363 -0.27851 0.212099
0.246639 -0.284673 0.240078
0.347492 -0.272378 0.228776
0.412588 -0.245658 0.180525
0.435066 -0.208588 0.104256
0.411274 -0.163219 0.0106417
0.345273 -0.111166 -0.0869347
0.249542 -0.0545269 -0.172624
0.139155 0.00348104 -0.230308
0.0278634 0.0564804 -0.2496
-0.07264 0.097036 -0.225657
-0.153387 0.119754 -0.163834
-0.208187 0.124439 -0.0839083
-0.234993 0.112033 -0.00599325
-0.236248 0.0886362 0.0515926
-0.217455 0.0619336 0.0778681
-0.243372 -0.0342609 -0.0613593
-0.226551 -0.0933396 -0.0238777
-0.177399 -0.169159 0.0368788
-0.0971764 -0.245579 0.106911
0.00621014 -0.308908 0.170334
0.120112 -0.347926 0.215398
0.229203 -0.355334 0.231912
0.318418 -0.332225 0.215263
0.373963 -0.285367 0.170113
0.388319 -0.222587 0.10536
0.357695 -0.150143 0.0299094
0.286123 -0.0734242 -0.0465286
0.185924 0.00200354 -0.11248
0.0724293 0.0698414 -0.155652
-0.039941 0.121871 -0.167649
-0.138761 0.150439 -0.143985
-0.21478 0.152274 -0.0885729
-0.262082 0.132552 -0.0196389
-0.279517 0.0978558 0.0452221
-0.270739 0.058508 0.0895394
-0.242213 0.0261157 0.104212
-0.177728 -0.0191524 -0.0258711
-0.164483 -0.085783 0.0110315
-0.12782 -0.175198 0.0629982
-0.068112 -0.267106 0.117312
0.00936294 -0.343637 0.160099
0.0953083 -0.389774 0.182649
0.178003 -0.395983 0.181055
0.245679 -0.362672 0.155895
0.286056 -0.299215 0.114588
0.291537 -0.216653 0.0658742
0.25828 -0.124632 0.0161033
0.189669 -0.0313811 -0.0299434
0.0964022 0.0549747 -0.0668286
-0.00759655 0.125782 -0.0879008
-0.108879 0.171686 -0.0878334
-0.195541 0.184942 -0.0633743
-0.259029 0.164509 -0.0168672
-0.293972 0.121033 0.0369329
-0.300157 0.0665533 0.0846388
-0.281996 0.0150991 0.113469
-0.246052 -0.0187647 0.116757
-0.115881 -0.00726123 0.00258304
-0.108916 -0.0754758 0.0340632
-0.088327 -0.168589 0.0714319
-0.053703 -0.265779 0.104368
-0.00741207 -0.346569 0.121486
0.0453863 -0.393873 0.117875
0.097663 -0.396405 0.0955745
0.141552 -0.354598 0.0602772
0.166838 -0.280852 0.0221495
0.166417 -0.187858 -0.0106074
0.13633 -0.0872254 -0.0342456
0.0787348 0.0114447 -0.0489194
0.00172796 0.0988419 -0.055333
-0.0833484 0.165023 -0.0527049
-0.165247 0.200466 -0.0391206
-0.233117 0.196964 -0.0128425
-0.279634 0.155467 0.0253212
-0.300422 0.0918139 0.0648706
-0.295791 0.022306 0.0971647
-0.270613 -0.0360705 0.113261
-0.230808 -0.067392 0.109464
-0.0755122 0.00205398 0.0147969
-0.077085 -0.0606213 0.0366943
-0.0739455 -0.147254 0.0566701
-0.0645154 -0.238278 0.0670581
-0.0486546 -0.313205 0.0597812
-0.0276443 -0.355134 0.0327501
-0.00395466 -0.351794 -0.00743222
0.0180242 -0.3054 -0.0511261
0.0309267 -0.229826 -0.0861392
0.0285872 -0.137972 -0.105122
0.00695464 -0.0415931 -0.106555
-0.0333617 0.0501308 -0.0946241
-0.087325 0.128293 -0.0751037
-0.146925 0.182861 -0.0521447
-0.203818 0.204751 -0.0269086
-0.249159 0.185588 0.000906809
-0.27681 0.126933 0.0318138
-0.283505 0.0489869 0.0600125
-0.269893 -0.0291606 0.0806841
-0.240666 -0.0888677 0.0887279
-0.200806 -0.114289 0.0831153
-0.0655127 0.0117165 0.00780809
-0.0767362 -0.0395891 0.0175206
-0.0896322 -0.111762 0.0211016
-0.101425 -0.187965 0.0131839
-0.110132 -0.249696 -0.0118431
-0.114189 -0.281712 -0.0538458
-0.112811 -0.272369 -0.103862
-0.107375 -0.225633 -0.150428
-0.102495 -0.155844 -0.180916
-0.103005 -0.074788 -0.189062
-0.112925 0.0072329 -0.174981
-0.1332 0.0829333 -0.145336
-0.161706 0.145039 -0.108988
-0.193888 0.184293 -0.0731662
-0.224452 0.192321 -0.0410975
-0.246893 0.160362 -0.0136945
-0.25654 0.0899636 0.0105325
-0.251096 0.0040642 0.0303581
-0.230918 -0.0772241 0.0437101
-0.200115 -0.134811 0.0481221
-0.163073 -0.153337 0.0447216
-0.0881118 0.0251003 -0.0150737
-0.108917 -0.0114197 -0.0169206
-0.133024 -0.064818 -0.0249915
-0.1576 -0.122305 -0.0431953
-0.180094 -0.168073 -0.075432
-0.197657 -0.189301 -0.120152
-0.208085 -0.175734 -0.169163
-0.211035 -0.132927 -0.211788
-0.208944 -0.074612 -0.236688
-0.205052 -0.0103725 -0.238765
-0.203079 0.0520695 -0.218773
-0.205081 0.108192 -0.183674
-0.211022 0.152881 -0.142707
-0.219187 0.177829 -0.103682
-0.226964 0.175091 -0.0705884
-0.230164 0.134991 -0.0452093
-0.225471 0.058273 -0.0258129
-0.211396 -0.0308501 -0.0104957
-0.187713 -0.112578 6.49613e-05
-0.157718 -0.167319 0.00468609
-0.125228 -0.180694 0.00585488
-0.128781 0.0419764 -0.0459967
-0.156312 0.0210197 -0.0568695
-0.185235 -0.0135101 -0.0702944
-0.213422 -0.0524573 -0.0894353
-0.239022 -0.0830084 -0.117356
-0.259455 -0.0950778 -0.152437
-0.272742 -0.0802873 -0.189968
-0.277956 -0.0452106 -0.222439
-0.275837 -0.00197144 -0.241344
-0.267688 0.042768 -0.242745
-0.256415 0.0845429 -0.226848
-0.244464 0.12193 -0.198604
-0.232916 0.15196 -0.164832
-0.222188 0.167012 -0.131341
-0.212 0.158952 -0.101627
-0.200505 0.116606 -0.0780624
-0.185674 0.0392526 -0.0597042
-0.166725 -0.0490302 -0.0439553
-0.142744 -0.129903 -0.0319131
-0.115995 -0.182978 -0.0249509
-0.0895875 -0.194233 -0.019893
-0.168287 0.0597596 -0.0746819
-0.197581 0.0522461 -0.0909695
-0.224333 0.0333537 -0.103864
-0.247824 0.00955765 -0.116163
-0.267929 -0.00914568 -0.130814
-0.283588 -0.0152999 -0.147599
-0.294127 -0.00264076 -0.166983
-0.298734 0.0220701 -0.186225
-0.296627 0.0491039 -0.200588
-0.28678 0.0750243 -0.207147
-0.270626 0.0988317 -0.204302
-0.250126 0.121999 -0.192914
-0.226618 0.143209 -0.174971
-0.20205 0.154934 -0.152129
-0.178368 0.148042 -0.126521
-0.156298 0.109433 -0.101126
-0.135181 0.036485 -0.0771516
-0.114928 -0.0479992 -0.0545783
-0.0939968 -0.127797 -0.0368815
-0.07337 -0.181313 -0.0269401
-0.0549621 -0.194101 -0.0212756
-0.188908 0.0747682 -0.0926388
-0.214179 0.0766453 -0.110922
-0.232843 0.0679486 -0.11962
-0.246055 0.0538469 -0.121084
-0.25596 0.0420784 -0.118499
-0.26369 0.037902 -0.114342
-0.270137 0.0455538 -0.114581
-0.274737 0.0590212 -0.121732
-0.275005 0.0713302 -0.134947
-0.26727 0.0821028 -0.152039
-0.250814 0.0934944 -0.168484
-0.226322 0.109208 -0.179555
-0.194879 0.128766 -0.180781
-0.159697 0.144006 -0.168338
-0.125171 0.144136 -0.142807
-0.0950462 0.113993 -0.108196
-0.0702874 0.0490122 -0.0694011
-0.051576 -0.0300247 -0.0325814
-0.0369105 -0.109097 -0.00538684
-0.0256765 -0.165116 0.00690193
-0.0178288 -0.1826 0.00804385
-0.180472 0.083074 -0.0969305
-0.196848 0.0892276 -0.115222
-0.204304 0.0851862 -0.119286
-0.205748 0.0752179 -0.110674
-0.205481 0.0656203 -0.0927268
-0.20679 0.0600689 -0.0712578
-0.211598 0.0610195 -0.0568689
-0.219236 0.0640058 -0.0566709
-0.225216 0.0648139 -0.072993
-0.223075 0.0656141 -0.104027
-0.209443 0.071079 -0.141581
-0.183201 0.0862608 -0.174717
-0.145123 0.11061 -0.192011
-0.0997783 0.134712 -0.183957
-0.0544989 0.145757 -0.15018
-0.0165832 0.126762 -0.0964453
0.0110374 0.0714607 -0.0327479
0.0267468 -0.00159225 0.025163
0.032719 -0.0801492 0.0646252
0.0314925 -0.139703 0.0778664
0.0257301 -0.163343 0.0688849
-0.144831 0.0807325 -0.0879344
-0.150212 0.0865333 -0.105406
-0.146437 0.0827797 -0.107169
-0.138239 0.0736614 -0.0931647
-0.131551 0.0637568 -0.0665028
-0.130754 0.0555929 -0.0360582
-0.137764 0.050006 -0.0151655
-0.151484 0.0446006 -0.0139695
-0.165253 0.0376999 -0.0368157
-0.170022 0.0333405 -0.0819974
-0.159775 0.0380558 -0.137704
-0.131587 0.0573902 -0.187303
-0.0862437 0.0900088 -0.21319
-0.029919 0.124938 -0.201093
0.0267851 0.14745 -0.150592
0.0727759 0.139399 -0.0698843
0.10299 0.093654 0.025339
0.114923 0.0265797 0.108596
0.110717 -0.0506766 0.161588
0.0950294 -0.112575 0.173733
0.0738305 -0.140802 0.150026
-0.0918609 0.0667953 -0.0715283
-0.087546 0.0691778 -0.0895313
-0.0759738 0.063699 -0.0929137
-0.0632478 0.054787 -0.0803484
-0.0556243 0.044794 -0.0540148
-0.0580069 0.0351704 -0.0243525
-0.071233 0.0253033 -0.00550232
-0.0928086 0.0145549 -0.00880404
-0.114429 0.00356012 -0.0393982
-0.12497 -0.00252456 -0.0954768
-0.116188 0.00408915 -0.16232
-0.0838028 0.0287834 -0.218962
-0.0291471 0.0691139 -0.2433
0.039766 0.112703 -0.217904
0.108962 0.143525 -0.143491
0.163603 0.14369 -0.0308202
0.196787 0.105446 0.0988469
0.205142 0.0437542 0.208027
0.190652 -0.0299009 0.272622
0.16018 -0.0904497 0.280773
0.123204 -0.119998 0.23905
-0.036511 0.0421339 -0.0557127
-0.0261677 0.0393993 -0.0762239
-0.0119744 0.0323897 -0.0852104
-0.000309463 0.0245611 -0.0800599
0.00287137 0.0165028 -0.0619295
-0.00646833 0.00791933 -0.0407297
-0.0279184 -0.00282763 -0.0299024
-0.0572549 -0.0152286 -0.0403695
-0.0847821 -0.0270676 -0.0770933
-0.0982776 -0.0326863 -0.138083
-0.0880656 -0.0235711 -0.206939
-0.0492075 0.00512897 -0.260337
0.0160243 0.0499064 -0.27389
0.0977812 0.0975784 -0.228939
0.179119 0.132052 -0.128203
0.242204 0.136281 0.0154534
0.278609 0.102803 0.175987
0.284283 0.045986 0.306088
0.261072 -0.0212166 0.378018
0.21779 -0.0762769 0.379805
0.166998 -0.102984 0.319776
0.00714313 0.010856 -0.0431625
0.0187923 0.00328373 -0.0663411
0.0306475 -0.00387264 -0.0820067
0.0369575 -0.00861851 -0.0866629
0.0330437 -0.012343 -0.0802319
0.0161363 -0.0169033 -0.0711538
-0.0117311 -0.0251855 -0.070653
-0.0455404 -0.0360224 -0.0878396
-0.0750305 -0.0464456 -0.126842
-0.0881318 -0.0508596 -0.185434
-0.0747504 -0.0404768 -0.2473
-0.0299382 -0.0110911 -0.289383
0.0431302 0.0331349 -0.28782
0.13338 0.0791356 -0.225122
0.222162 0.11186 -0.105433
0.290215 0.11613 0.0569499
0.328306 0.0854749 0.2331
0.332189 0.0342791 0.371358
0.303301 -0.0236843 0.44308
0.251953 -0.069482 0.438973
0.192547 -0.0896896 0.367406
0.0347589 -0.0212459 -0.0334639
0.0439441 -0.0318483 -0.057433
0.0502895 -0.0373873 -0.0780532
0.0495428 -0.0374257 -0.0911116
0.0384461 -0.0349815 -0.0964894
0.0160761 -0.0334845 -0.0990149
-0.0150411 -0.0367873 -0.107421
-0.0492842 -0.0439917 -0.128623
-0.0773627 -0.051632 -0.165569
-0.0884417 -0.0547822 -0.216077
-0.0729811 -0.0448469 -0.265564
-0.0263738 -0.01831 -0.293449
0.0478881 0.0204839 -0.278561
0.138807 0.0594561 -0.20579
0.22817 0.0854598 -0.0799829
0.296782 0.0861801 0.0839983
0.335422 0.0568147 0.258039
0.339623 0.0113259 0.391249
0.310479 -0.0354968 0.458289
0.25809 -0.0691575 0.449151
0.197097 -0.0796358 0.373225
0.0447654 -0.0478487 -0.0247459
0.0493464 -0.0593721 -0.0469807
0.0494408 -0.0621498 -0.069109
0.0423158 -0.0569904 -0.0875308
0.0266389 -0.0480735 -0.10111
0.00265555 -0.0399295 -0.111647
-0.026824 -0.0373366 -0.125285
-0.0571695 -0.0399701 -0.146589
-0.0809385 -0.0443447 -0.177664
-0.0889416 -0.0465803 -0.216746
-0.0731182 -0.0386983 -0.252089
-0.0294591 -0.0178111 -0.267085
0.0388273 0.0120633 -0.24461
0.122228 0.0406067 -0.172264
0.204096 0.0572884 -0.0553399
0.267293 0.0528735 0.0928454
0.303152 0.0246044 0.2475
0.307463 -0.0142817 0.36462
0.281652 -0.0494789 0.421122
0.234698 -0.0705871 0.408567
0.179016 -0.0710686 0.336281
0.0414048 -0.0624453 -0.0170463
0.0412144 -0.073179 -0.0348519
0.0366063 -0.0735983 -0.0548772
0.0262314 -0.0648288 -0.0738354
0.0100023 -0.0512938 -0.0902295
-0.0112796 -0.0381348 -0.103746
-0.0355517 -0.0306951 -0.11802
-0.059198 -0.029433 -0.135656
-0.0769866 -0.0311791 -0.158484
-0.082094 -0.0325943 -0.185258
-0.0682531 -0.0271109 -0.207636
-0.0324111 -0.0125346 -0.213693
0.023141 0.00766987 -0.190944
0.0907203 0.0253126 -0.129878
0.157432 0.0327766 -0.035122
0.208892 0.023784 0.0825228
0.23844 -0.00298091 0.203923
0.242625 -0.0352512 0.29585
0.223199 -0.0599037 0.338684
0.187137 -0.0706853 0.325939
0.143771 -0.0631935 0.266225
-0.285444 -0.133064 -0.106463
-0.270476 -0.148943 -0.109949
-0.218271 -0.149703 -0.0906254
-0.132703 -0.139331 -0.0529101
-0.0231213 -0.122963 -0.00411498
0.0959468 -0.107306 0.0430344
0.210127 -0.0996374 0.0754741
0.305865 -0.107073 0.0822429
0.373117 -0.129521 0.0590286
0.407131 -0.161966 0.00639507
0.405788 -0.196002 -0.0681663
0.371791 -0.221877 -0.152517
0.314054 -0.229972 -0.230689
0.242327 -0.213109 -0.28562
0.165515 -0.170489 -0.30632
0.0905025 -0.106765 -0.288337
0.0231726 -0.0329049 -0.23572
-0.0319669 0.0363294 -0.163215
-0.0716642 0.0885702 -0.0909203
-0.0950361 0.116928 -0.0336096
-0.103065 0.11913 -0.000132251
-0.356741 -0.128508 -0.125041
-0.341063 -0.158571 -0.122018
-0.277075 -0.177982 -0.0906228
-0.168328 -0.187104 -0.0379893
-0.0265254 -0.186773 0.0259047
0.128903 -0.181338 0.0869723
0.277649 -0.175785 0.129062
0.401026 -0.176708 0.139328
0.485053 -0.185535 0.112963
0.522912 -0.200407 0.0516763
0.512983 -0.214771 -0.0361038
0.458757 -0.220571 -0.136468
0.373398 -0.209783 -0.230842
0.270588 -0.176674 -0.299067
0.163494 -0.122578 -0.327741
0.0621496 -0.0536601 -0.310202
-0.0248581 0.0187987 -0.250578
-0.0915624 0.0814953 -0.167227
-0.134235 0.123034 -0.0840613
-0.153531 0.139349 -0.0191981
-0.152978 0.13053 0.016543
-0.389866 -0.113224 -0.126569
-0.373188 -0.161014 -0.115648
-0.302728 -0.205979 -0.0730403
-0.181227 -0.242566 -0.00940091
-0.021365 -0.265778 0.0634056
0.155056 -0.274967 0.132162
0.324215 -0.271409 0.178913
0.462975 -0.261992 0.191488
0.554362 -0.250713 0.16583
0.590845 -0.239417 0.104593
0.569637 -0.225167 0.0158892
0.495573 -0.203028 -0.08678
0.385051 -0.16787 -0.184841
0.255885 -0.116582 -0.257505
0.124374 -0.0527651 -0.290194
0.00371195 0.0154034 -0.274821
-0.095546 0.077602 -0.214472
-0.166517 0.124031 -0.129928
-0.205977 0.146254 -0.0465068
-0.216481 0.144495 0.0163928
-0.204256 0.122995 0.0468527
-0.376783 -0.0916642 -0.109697
-0.35929 -0.157829 -0.0908629
-0.28889 -0.230747 -0.0413357
-0.167346 -0.297245 0.0265502
-0.00711298 -0.345881 0.0999447
0.170046 -0.370326 0.166389
0.339411 -0.368086 0.210298
0.47706 -0.34516 0.221648
0.564975 -0.309469 0.19904
0.593798 -0.267362 0.145519
0.560542 -0.220531 0.0680087
0.471064 -0.167986 -0.0225274
0.34354 -0.108115 -0.110236
0.198102 -0.0408496 -0.176251
0.0536951 0.0277672 -0.206672
-0.0752147 0.0885574 -0.192524
-0.176955 0.132845 -0.135777
-0.244428 0.155872 -0.0577495
-0.275411 0.153726 0.0170439
-0.274227 0.131733 0.069513
-0.249237 0.0987973 0.0880587
-0.320473 -0.0696312 -0.0777074
-0.303571 -0.150816 -0.0535598
-0.240874 -0.24861 -0.00424975
-0.133265 -0.341849 0.0581814
0.0086124 -0.412906 0.120938
0.165865 -0.449683 0.173153
0.316116 -0.446616 0.204398
0.437979 -0.409103 0.209798
0.512944 -0.348446 0.190834
0.530859 -0.27621 0.150883
0.488565 -0.198883 0.0949441
0.392102 -0.11946 0.0296998
0.259426 -0.0397086 -0.034113
0.110946 0.0376564 -0.0820746
-0.0336455 0.104575 -0.102608
-0.159278 0.15177 -0.0870552
-0.25428 0.172738 -0.0359616
-0.311944 0.168589 0.0303085
-0.33122 0.141103 0.0901427
-0.317765 0.10035 0.126475
-0.281154 0.059878 0.12967
-0.23522 -0.0508435 -0.0390992
-0.221367 -0.141265 -0.012744
-0.173168 -0.255597 0.0297752
-0.0910582 -0.366996 0.0769194
0.017472 -0.452689 0.117476
0.138091 -0.496315 0.144184
0.25318 -0.489857 0.153881
0.345926 -0.438554 0.147683
0.400046 -0.356861 0.130639
0.405441 -0.260914 0.106869
0.358844 -0.16119 0.0788931
0.265787 -0.0637803 0.0479689
0.142105 0.0270162 0.0179826
0.0064052 0.106389 -0.00319826
-0.12301 0.164997 -0.00766828
-0.232175 0.193815 0.0116149
-0.310525 0.188631 0.0553508
-0.352295 0.157007 0.106385
-0.3576 0.106351 0.147667
-0.332889 0.0509157 0.166285
-0.287799 0.00808632 0.155266
-0.152185 -0.0352779 -0.00666225
-0.144218 -0.127457 0.0168604
-0.114336 -0.246322 0.0461699
-0.0630463 -0.364234 0.0716182
0.0058426 -0.454733 0.0839578
0.083537 -0.49904 0.0804216
0.158517 -0.487176 0.0647805
0.219541 -0.424302 0.0439811
0.252939 -0.329104 0.0267947
0.249468 -0.220081 0.0177195
0.20565 -0.110169 0.0168584
0.125797 -0.00704191 0.0201672
0.0223754 0.0838187 0.0246664
-0.0892374 0.156516 0.0314624
-0.193732 0.201592 0.0443918
-0.278618 0.209584 0.0685372
-0.335268 0.178726 0.105698
-0.359279 0.12281 0.142988
-0.351601 0.054018 0.168526
-0.318978 -0.0102152 0.173601
-0.270141 -0.0502862 0.154584
-0.0944115 -0.0224676 0.00941833
-0.0950637 -0.107899 0.0250083
-0.0850591 -0.219293 0.0374109
-0.0643335 -0.330447 0.0392441
-0.033705 -0.414706 0.0242377
0.00334778 -0.45314 -0.00694943
0.041371 -0.433959 -0.0452032
0.0737762 -0.364625 -0.0790086
0.0904718 -0.265972 -0.096831
0.0835441 -0.157011 -0.0942703
0.049323 -0.0511276 -0.0732702
-0.00960161 0.0442858 -0.0421113
-0.084693 0.124123 -0.00934557
-0.164689 0.182511 0.0205329
-0.238078 0.21048 0.0477849
-0.294891 0.198476 0.0756017
-0.328123 0.14553 0.106798
-0.33497 0.071343 0.133509
-0.316965 -0.00882995 0.148114
-0.280535 -0.0753971 0.145922
-0.232829 -0.108515 0.126273
-0.0736065 -0.00919384 0.00544545
-0.0845487 -0.0808264 0.00946154
-0.0930711 -0.175433 0.00505829
-0.0980929 -0.269871 -0.0127699
-0.0980691 -0.33978 -0.0480027
-0.0926283 -0.367703 -0.0974057
-0.0829535 -0.341978 -0.14898
-0.0716174 -0.271903 -0.189198
-0.0653227 -0.179107 -0.205733
-0.0702812 -0.0813781 -0.194847
-0.0902184 0.00923585 -0.159993
-0.124441 0.087144 -0.111903
-0.16819 0.148772 -0.0623532
-0.214491 0.188995 -0.0191873
-0.255753 0.199564 0.0155766
-0.284772 0.170564 0.0435979
-0.296423 0.10132 0.0684446
-0.289117 0.0156713 0.0875017
-0.264216 -0.0695856 0.0961511
-0.22727 -0.134365 0.0923492
-0.184306 -0.158895 0.0779725
-0.0934008 0.0086433 -0.015776
-0.114839 -0.0453304 -0.0235847
-0.136588 -0.118256 -0.0404399
-0.157192 -0.191848 -0.0695914
-0.174202 -0.244815 -0.113192
-0.185426 -0.261932 -0.166481
-0.190132 -0.232498 -0.2183
-0.188733 -0.167291 -0.256227
-0.185354 -0.0872876 -0.269361
-0.184345 -0.00763968 -0.255075
-0.189182 0.0622107 -0.217364
-0.200707 0.119343 -0.166915
-0.216891 0.162087 -0.115529
-0.234254 0.186003 -0.0713678
-0.248512 0.183112 -0.037093
-0.254996 0.14249 -0.0120411
-0.250142 0.0629339 0.00745122
-0.233284 -0.0291135 0.0226529
-0.205246 -0.116539 0.0303928
-0.170527 -0.17859 0.0297678
-0.134332 -0.196322 0.024252
-0.137125 0.0308941 -0.04575
-0.166127 -0.00463076 -0.0631903
-0.193794 -0.0560873 -0.0859831
-0.218823 -0.109406 -0.116132
-0.239357 -0.146672 -0.154718
-0.253369 -0.15528 -0.197109
-0.260371 -0.126102 -0.23624
-0.26025 -0.0706212 -0.263664
-0.255322 -0.00779091 -0.271894
-0.247839 0.0507696 -0.259712
-0.240462 0.09901 -0.230424
-0.23481 0.136975 -0.192026
-0.230328 0.164725 -0.153042
-0.226034 0.177987 -0.118859
-0.220299 0.168229 -0.0912081
-0.210749 0.122835 -0.0699458
-0.195107 0.0393764 -0.0523601
-0.173429 -0.0546788 -0.0359293
-0.145872 -0.142988 -0.0244208
-0.115776 -0.20371 -0.0193435
-0.0875633 -0.217998 -0.0164804
-0.181059 0.0541727 -0.0731374
-0.21195 0.034464 -0.0962344
-0.237324 0.000648787 -0.118305
-0.256713 -0.0362696 -0.140416
-0.270077 -0.0615573 -0.163327
-0.277099 -0.0652573 -0.18426
-0.278955 -0.0402686 -0.202283
-0.276024 0.00216535 -0.214841
-0.269191 0.0462404 -0.219095
-0.258259 0.0842745 -0.215224
-0.244341 0.113934 -0.204439
-0.228807 0.138034 -0.189645
-0.211424 0.157764 -0.173269
-0.192807 0.168236 -0.155364
-0.173595 0.159386 -0.13567
-0.153733 0.116387 -0.114489
-0.132214 0.0350407 -0.0915738
-0.10976 -0.0575601 -0.0668888
-0.086002 -0.146504 -0.0469541
-0.0630167 -0.208336 -0.0355117
-0.0440789 -0.223479 -0.0282225
-0.202803 0.0741381 -0.0884646
-0.228672 0.0656684 -0.112891
-0.244644 0.0433893 -0.129509
-0.251725 0.016943 -0.138447
-0.252357 -0.00150158 -0.140673
-0.248694 -0.00434089 -0.13672
-0.243932 0.0133455 -0.13219
-0.239132 0.0416103 -0.130973
-0.233642 0.0683499 -0.135037
-0.224473 0.089652 -0.145623
-0.210434 0.10666 -0.160492
-0.191615 0.124305 -0.175681
-0.167391 0.144053 -0.185631
-0.139433 0.159569 -0.183519
-0.110708 0.158523 -0.166896
-0.0838192 0.123708 -0.137012
-0.0593285 0.0490262 -0.0978924
-0.0387418 -0.0398949 -0.05628
-0.021496 -0.129729 -0.0233862
-0.00825833 -0.195055 -0.00638977
-0.000440238 -0.214932 -0.00109027
-0.18937 0.0855208 -0.0887874
-0.204359 0.0824189 -0.111503
-0.207119 0.0658765 -0.121245
-0.20031 0.0442614 -0.117121
-0.188737 0.0280884 -0.100476
-0.176883 0.0231009 -0.0758106
-0.169269 0.0320067 -0.0542435
-0.167122 0.0469959 -0.045241
-0.167925 0.0597633 -0.0546208
-0.165722 0.0696338 -0.0840467
-0.156457 0.0806595 -0.126803
-0.138177 0.0990746 -0.171295
-0.109718 0.125743 -0.203417
-0.0737292 0.15225 -0.209326
-0.035926 0.163648 -0.185212
-0.00208269 0.140567 -0.134189
0.0251741 0.0751775 -0.066312
0.0432657 -0.00891659 0.000606915
0.0524556 -0.0995965 0.0500057
0.0536471 -0.169591 0.0710875
0.0480303 -0.196176 0.0674178
-0.142669 0.0827275 -0.0751627
-0.1443 0.0796539 -0.0948027
-0.133879 0.064437 -0.0995497
-0.116317 0.045148 -0.0870028
-0.0980263 0.0297376 -0.0588289
-0.084488 0.0224131 -0.0232132
-0.07998 0.0234179 0.00550098
-0.0854426 0.027617 0.0141706
-0.0962027 0.0302891 -0.00531543
-0.103522 0.0333027 -0.054413
-0.100498 0.0430984 -0.121786
-0.0829867 0.0665185 -0.188738
-0.0496678 0.103288 -0.233564
-0.00440924 0.142732 -0.23662
0.0439461 0.167498 -0.193951
0.0861138 0.156743 -0.111471
0.117021 0.10176 -0.0062497
0.132949 0.0236356 0.0916664
0.133525 -0.06637 0.159562
0.121246 -0.139441 0.182179
0.100652 -0.171352 0.163459
-0.0751163 0.0639163 -0.0554237
-0.0651882 0.0572707 -0.0733756
-0.0462451 0.041639 -0.0774934
-0.0247317 0.0247785 -0.0641696
-0.00726797 0.0116661 -0.0346987
0.000413811 0.00442441 0.000462159
-0.00454213 0.00101044 0.0259479
-0.0210729 -0.00176687 0.0272289
-0.042926 -0.00523888 -0.00448919
-0.0591014 -0.00578195 -0.069926
-0.0602887 0.00494592 -0.153763
-0.0405872 0.033909 -0.231737
0.00078813 0.0795856 -0.276561
0.0584085 0.129391 -0.26479
0.120072 0.16437 -0.193884
0.172798 0.163809 -0.0729847
0.209224 0.117909 0.0741908
0.224341 0.0459762 0.204668
0.216943 -0.0401412 0.288967
0.191267 -0.112104 0.309463
0.15538 -0.146054 0.271165
-0.00569337 0.0306717 -0.0384478
0.010949 0.0186133 -0.0572984
0.0316374 0.00325507 -0.065429
0.0496296 -0.00954717 -0.0584685
0.0590047 -0.017413 -0.0369889
0.0552251 -0.0210829 -0.0114695
0.0373575 -0.0245707 0.00336126
0.00873621 -0.0297726 -0.00648659
-0.022507 -0.0357747 -0.0490661
-0.044301 -0.0377786 -0.124074
-0.0457933 -0.0260441 -0.21354
-0.0201232 0.00625802 -0.289923
0.0323891 0.0566141 -0.323002
0.104543 0.111383 -0.287936
0.181021 0.151664 -0.184907
0.245707 0.157148 -0.0255554
0.289111 0.118161 0.160376
0.305081 0.0527561 0.317893
0.291674 -0.0257688 0.413442
0.254663 -0.091491 0.428588
0.2053 -0.123071 0.369781
0.0471031 -0.0110035 -0.0278027
0.0643765 -0.0279949 -0.0487013
0.0805348 -0.0412953 -0.0627447
0.0896917 -0.047628 -0.0653715
0.0876776 -0.0475219 -0.0563637
0.071622 -0.044262 -0.0448602
0.0428335 -0.0439667 -0.0433412
0.00604598 -0.0478647 -0.0637099
-0.0296398 -0.0538162 -0.112402
-0.0524451 -0.0565019 -0.187879
-0.0510904 -0.0453087 -0.271574
-0.0185651 -0.0136372 -0.335772
0.0436577 0.0355534 -0.350716
0.127029 0.0887132 -0.293247
0.214309 0.128332 -0.165479
0.287811 0.135718 0.0188656
0.336548 0.102054 0.225835
0.35378 0.0445253 0.395029
0.336869 -0.0227248 0.492105
0.292841 -0.0777029 0.501334
0.234887 -0.102907 0.42894
0.0778783 -0.0530533 -0.02238
0.0907649 -0.0726286 -0.0445331
0.0983152 -0.0819269 -0.0638818
0.0965055 -0.0801425 -0.0756187
0.0830943 -0.0704595 -0.0797292
0.0574651 -0.0583956 -0.0819134
0.0219836 -0.0517647 -0.0919215
-0.0177282 -0.0521329 -0.118883
-0.0530016 -0.0564897 -0.167366
-0.0735603 -0.05975 -0.235005
-0.068811 -0.0510375 -0.304677
-0.0321521 -0.0240858 -0.351288
0.034301 0.0182625 -0.348343
0.121787 0.0636265 -0.275954
0.213335 0.0968477 -0.13753
0.290591 0.102334 0.0515365
0.342412 0.0726452 0.257848
0.361731 0.0236964 0.421925
0.345598 -0.0296092 0.513432
0.300879 -0.070301 0.51616
0.241086 -0.0854265 0.437754
0.085122 -0.0865669 -0.0190905
0.0908919 -0.105977 -0.0405237
0.0890349 -0.110203 -0.0621867
0.0774713 -0.100499 -0.0802661
0.0563268 -0.0819459 -0.0938516
0.0263877 -0.0614223 -0.105469
-0.00921323 -0.0480856 -0.12224
-0.045652 -0.0441581 -0.15023
-0.0761667 -0.0462266 -0.192518
-0.0920546 -0.0500455 -0.246698
-0.0845371 -0.0451542 -0.29858
-0.0478578 -0.0257512 -0.327665
0.0158347 0.0058953 -0.3125
0.0990062 0.0394531 -0.236815
0.185734 0.062986 -0.10551
0.259316 0.0642564 0.0670659
0.309209 0.0380529 0.251374
0.328731 -0.00147011 0.396106
0.315586 -0.0401078 0.473713
0.275959 -0.0656907 0.470616
0.221254 -0.0700945 0.395059
0.073983 -0.102777 -0.0166178
0.0727653 -0.120042 -0.0347053
0.0641743 -0.120379 -0.0551062
0.0477317 -0.105776 -0.0745635
0.0249789 -0.0818116 -0.0917268
-0.00268242 -0.0557656 -0.106803
-0.0328398 -0.0374338 -0.124276
-0.0617106 -0.029803 -0.147753
-0.0847327 -0.0297661 -0.179444
-0.0955258 -0.0335742 -0.217416
-0.0872112 -0.0322223 -0.251345
-0.0554337 -0.020679 -0.266421
-0.00160963 -0.000523181 -0.247116
0.0678498 0.0203822 -0.181077
0.14036 0.0337298 -0.0733903
0.20173 0.0305947 0.0641766
0.243708 0.00739326 0.20877
0.260801 -0.0234223 0.321883
0.251708 -0.048889 0.380369
0.221551 -0.0618441 0.374115
0.178893 -0.0574344 0.311337
-0.321218 -0.164888 -0.106061
-0.303583 -0.189064 -0.124577
-0.241625 -0.195782 -0.122452
-0.140134 -0.189746 -0.0996803
-0.0104717 -0.1752 -0.0597022
0.130341 -0.156864 -0.0119284
0.264492 -0.144653 0.0308278
0.375117 -0.147952 0.0560638
0.450678 -0.168456 0.0550533
0.487084 -0.201935 0.0227868
0.482488 -0.239881 -0.0375866
0.441334 -0.270807 -0.116656
0.374722 -0.282316 -0.198842
0.294631 -0.264657 -0.265041
0.210604 -0.215807 -0.300397
0.12969 -0.140045 -0.29677
0.0578231 -0.0505898 -0.254655
-0.000914424 0.0335488 -0.187862
-0.0439117 0.0973815 -0.117568
-0.0710135 0.132503 -0.0597029
-0.0839357 0.135771 -0.0234286
-0.401347 -0.163576 -0.128944
-0.38384 -0.204492 -0.146241
-0.309439 -0.231987 -0.136999
-0.181979 -0.246455 -0.102553
-0.0154922 -0.24752 -0.0481258
0.167155 -0.23792 0.0152996
0.341274 -0.225792 0.0719604
0.483723 -0.22064 0.106759
0.578326 -0.2264 0.109909
0.619072 -0.242466 0.0758975
0.604586 -0.262112 0.00780188
0.540485 -0.274844 -0.0839274
0.442771 -0.268869 -0.181314
0.328296 -0.235046 -0.261655
0.211154 -0.173068 -0.306979
0.102044 -0.0888974 -0.306087
0.0095787 0.00331359 -0.258641
-0.0608612 0.0848612 -0.182244
-0.106344 0.140619 -0.102825
-0.128642 0.16451 -0.0396557
-0.132403 0.15565 -0.0038798
-0.439947 -0.14944 -0.134981
-0.422419 -0.210339 -0.147264
-0.341965 -0.265759 -0.12957
-0.200783 -0.308597 -0.0855063
-0.0140418 -0.332493 -0.0219717
0.192432 -0.335716 0.0506775
0.389988 -0.322807 0.115177
0.55029 -0.304745 0.156929
0.653423 -0.288996 0.166393
0.692874 -0.279272 0.138139
0.665821 -0.272199 0.0742285
0.579551 -0.25953 -0.0159325
0.453818 -0.231209 -0.114705
0.310293 -0.179621 -0.198568
0.166518 -0.106421 -0.248003
0.0368104 -0.0198128 -0.249879
-0.0681614 0.0661409 -0.202432
-0.142373 0.13521 -0.125807
-0.183516 0.173937 -0.0481774
-0.195491 0.179949 0.00977008
-0.186171 0.156902 0.0363641
-0.427667 -0.127423 -0.121122
-0.41 -0.208335 -0.125831
-0.330364 -0.293598 -0.101131
-0.189758 -0.367074 -0.0530024
-0.00297456 -0.415471 0.011444
0.20424 -0.431846 0.0825517
0.401941 -0.417418 0.145496
0.560997 -0.38296 0.188342
0.660405 -0.34112 0.204041
0.691376 -0.300807 0.187531
0.650935 -0.263067 0.139238
0.547572 -0.222762 0.0654237
0.403108 -0.172202 -0.0195126
0.241848 -0.105689 -0.0941877
0.084267 -0.026945 -0.139691
-0.0539875 0.0545164 -0.141752
-0.161134 0.125601 -0.0973546
-0.230959 0.174236 -0.0278677
-0.262203 0.190229 0.0389404
-0.260857 0.175967 0.0831934
-0.237109 0.14006 0.0933022
-0.366629 -0.104143 -0.0899162
-0.349612 -0.200977 -0.0868604
-0.278554 -0.312412 -0.0596821
-0.153701 -0.41305 -0.0152281
0.0123045 -0.482624 0.0388788
0.196741 -0.509135 0.0952675
0.372503 -0.490845 0.144463
0.513346 -0.438813 0.18028
0.597873 -0.370101 0.199392
0.616181 -0.299608 0.197735