# vtk DataFile Version 2.0
Func
ASCII
DATASET RECTILINEAR_GRID
DIMENSIONS 21 21 21
X_COORDINATES 21 double
-4.7619
-4.28571
-3.80952
-3.33333
-2.85714
-2.38095
-1.90476
-1.42857
-0.952381
-0.47619
0
0.47619
0.952381
1.42857
1.90476
2.38095
2.85714
3.33333
3.80952
4.28571
4.7619
Y_COORDINATES 21 double
-4.7619
-4.28571
-3.80952
-3.33333
-2.85714
-2.38095
-1.90476
-1.42857
-0.952381
-0.47619
0
0.47619
0.952381
1.42857
1.90476
2.38095
2.85714
3.33333
3.80952
4.28571
4.7619
Z_COORDINATES 21 double
-4.7619
-4.28571
-3.80952
-3.33333
-2.85714
-2.38095
-1.90476
-1.42857
-0.952381
-0.47619
0
0.47619
0.952381
1.42857
1.90476
2.38095
2.85714
3.33333
3.80952
4.28571
4.7619
POINT_DATA 9261
SCALARS data double 3
LOOKUP_TABLE default
-0.0878793 0.0246161 -0.00180815
-0.100685 0.00624561 0.00042834
-0.104311 -0.0255099 -0.00500161
-0.0962557 -0.0663014 -0.0209628
-0.0752217 -0.10895 -0.0463905
-0.0431765 -0.144649 -0.0769937
-0.00476983 -0.162136 -0.1052
0.0344618 -0.156441 -0.126847
0.0669701 -0.128578 -0.138029
0.0869832 -0.0849723 -0.134801
0.0916479 -0.0356706 -0.119288
0.08124 0.00804872 -0.0949584
0.0593929 0.0375991 -0.0652408
0.0311844 0.0485521 -0.032101
0.0010836 0.0430457 0.00110224
-0.027094 0.0274347 0.0326991
-0.049793 0.0100327 0.0607257
-0.0644379 -0.00373215 0.0801091
-0.0710202 -0.011686 0.0902875
-0.0703922 -0.0117182 0.0871374
-0.0651183 -0.00854229 0.0725589
-0.0600939 0.0297305 0.0210215
-0.0695477 0.00574286 0.0306669
-0.0711649 -0.0339695 0.0298264
-0.0621656 -0.0829492 0.0140674
-0.0410768 -0.131448 -0.0169519
-0.0101501 -0.170674 -0.0586439
0.0262474 -0.187952 -0.101187
0.0633518 -0.177185 -0.138311
0.0942739 -0.139581 -0.16526
0.113362 -0.0829498 -0.175536
0.118468 -0.0195934 -0.169895
0.10985 0.0364187 -0.150983
0.090947 0.0740542 -0.12142
0.0659088 0.0871901 -0.0824485
0.0378118 0.078444 -0.0377098
0.00904627 0.0558487 0.0106777
-0.016917 0.0301641 0.0586799
-0.0369769 0.00810204 0.0962214
-0.0505553 -0.00655519 0.119442
-0.0573848 -0.0107913 0.122103
-0.059144 -0.00944762 0.105158
-0.00212152 0.0311442 0.0429732
-0.00342158 0.00343182 0.0583211
-0.00120969 -0.0411283 0.0618869
0.00704722 -0.09503 0.0480265
0.0229669 -0.146592 0.0149179
0.0447758 -0.187026 -0.03482
0.0698295 -0.202379 -0.0902696
0.0951303 -0.186061 -0.143606
0.116578 -0.139385 -0.188032
0.130283 -0.0709456 -0.215404
0.135004 0.00489235 -0.224333
0.131288 0.0716159 -0.215947
0.121278 0.116079 -0.191453
0.107216 0.131037 -0.150869
0.0890298 0.119488 -0.0974095
0.0662638 0.0908381 -0.0333364
0.0414536 0.057926 0.0355
0.0175398 0.0281174 0.0936702
-0.0041729 0.00666207 0.132779
-0.0215731 -0.00289427 0.144468
-0.0343661 -0.00515748 0.128582
0.0704095 0.031494 0.0493105
0.0793601 0.00339929 0.0654964
0.0856285 -0.0412681 0.0705262
0.0911157 -0.0946221 0.0595627
0.0975614 -0.144343 0.0280126
0.104047 -0.182862 -0.0245343
0.11066 -0.195251 -0.0881382
0.117505 -0.174357 -0.153955
0.124398 -0.121474 -0.21274
0.129753 -0.045256 -0.255738
0.134031 0.0386977 -0.279235
0.138023 0.112297 -0.282663
0.141867 0.16101 -0.265748
0.144792 0.176997 -0.227119
0.142886 0.163433 -0.16913
0.131711 0.130986 -0.093372
0.112274 0.0937467 -0.00697998
0.0868229 0.0585918 0.0704742
0.0576829 0.0319928 0.1255
0.0286413 0.017124 0.148657
0.00320826 0.0097513 0.137965
0.135221 0.0337491 0.02952
0.153057 0.0104962 0.0389179
0.161762 -0.0281444 0.0409757
0.162336 -0.0748927 0.0313715
0.156213 -0.118753 0.00450057
0.144126 -0.153142 -0.0447561
0.129193 -0.163138 -0.109508
0.114836 -0.14078 -0.179846
0.104665 -0.0868043 -0.245064
0.100486 -0.0092149 -0.296592
0.104616 0.0762762 -0.328934
0.117936 0.151221 -0.340405
0.138299 0.200805 -0.329945
0.161527 0.217373 -0.295251
0.179436 0.204083 -0.237429
0.183979 0.172476 -0.156894
0.173939 0.136536 -0.0605059
0.150745 0.101097 0.0298573
0.117199 0.0728237 0.0978378
0.0789208 0.0536951 0.132359
0.0428444 0.0394822 0.13017
0.167999 0.0389774 -0.0240893
0.190291 0.0257702 -0.0278344
0.198566 -0.000536208 -0.0313982
0.192875 -0.0353491 -0.0390027
0.174184 -0.0697454 -0.0580457
0.144682 -0.0990368 -0.0964304
0.109945 -0.108262 -0.153093
0.0761296 -0.0887822 -0.218195
0.0505069 -0.0402702 -0.279904
0.0383727 0.0308307 -0.330264
0.0435681 0.110007 -0.362882
0.0667389 0.179922 -0.375957
0.10359 0.22681 -0.368752
0.146859 0.244126 -0.338901
0.184747 0.234932 -0.286002
0.205993 0.210652 -0.208919
0.207691 0.183715 -0.112861
0.190167 0.154978 -0.0185559
0.156889 0.129969 0.0559934
0.114483 0.108441 0.0995985
0.0726406 0.0859209 0.107119
0.156896 0.0502605 -0.0997818
0.177972 0.0511738 -0.12013
0.1828 0.0413873 -0.130321
0.170914 0.0217006 -0.135565
0.142456 -0.00215213 -0.144556
0.100627 -0.0270308 -0.166953
0.0523914 -0.0376989 -0.208462
0.00530119 -0.0253396 -0.259725
-0.0306965 0.0113927 -0.308047
-0.0475477 0.068528 -0.346423
-0.0405635 0.133899 -0.368821
-0.00962492 0.192704 -0.374791
0.0394658 0.233622 -0.365445
0.0973846 0.252237 -0.339514
0.150169 0.251617 -0.295405
0.184893 0.241814 -0.230085
0.197455 0.232269 -0.145614
0.187761 0.217901 -0.0585573
0.159411 0.201581 0.0137389
0.119513 0.179813 0.0606508
0.0790354 0.14776 0.0760419
0.110405 0.0665974 -0.174698
0.125726 0.0833154 -0.208939
0.125325 0.0906283 -0.223252
0.108671 0.0862186 -0.224089
0.0751289 0.0722094 -0.221252
0.028034 0.0506126 -0.22556
-0.0256682 0.0368058 -0.248438
-0.0782252 0.0387526 -0.280866
-0.118567 0.059201 -0.309513
-0.137074 0.0968753 -0.328358
-0.12902 0.142726 -0.332882
-0.0949212 0.185682 -0.325415
-0.0411205 0.218168 -0.310303
0.0224482 0.238912 -0.288393
0.0815857 0.251006 -0.257431
0.123429 0.262628 -0.212157
0.143759 0.278422 -0.150177
0.14239 0.285721 -0.0815094
0.122976 0.283022 -0.0205217
0.0919477 0.263301 0.0231941
0.0599971 0.220761 0.0426712
0.0481091 0.0864072 -0.224592
0.0558624 0.117273 -0.265191
0.0506437 0.138594 -0.27822
0.0321367 0.146222 -0.271763
-0.00097879 0.139648 -0.256894
-0.0461582 0.120001 -0.245015
-0.0974861 0.102288 -0.250509
-0.148326 0.0932612 -0.264142
-0.18784 0.0964218 -0.271912
-0.206223 0.112762 -0.268639
-0.199362 0.136552 -0.252094
-0.168257 0.161151 -0.228432
-0.118749 0.183718 -0.206198
-0.0599082 0.20696 -0.189047
-0.00432069 0.234155 -0.174628
0.0367405 0.271206 -0.155417
0.0598909 0.317336 -0.123758
0.0654414 0.351078 -0.0818025
0.0567623 0.365048 -0.0395803
0.0388901 0.348577 -0.00514774
0.0204397 0.295333 0.0143497
-0.011264 0.10538 -0.235024
-0.0102735 0.14549 -0.27269
-0.0174361 0.174845 -0.27952
-0.0332267 0.189355 -0.265017
-0.0595384 0.187116 -0.241261
-0.0955892 0.168798 -0.219645
-0.137387 0.148592 -0.213755
-0.180451 0.13141 -0.213155
-0.215307 0.120298 -0.202998
-0.233274 0.11749 -0.178822
-0.231201 0.120198 -0.141228
-0.21012 0.12639 -0.100881
-0.174302 0.13849 -0.0709805
-0.130578 0.163718 -0.0582627
-0.0883701 0.205825 -0.0607706
-0.0562003 0.268463 -0.0688079
-0.0358646 0.345467 -0.0694394
-0.0261473 0.406373 -0.0574246
-0.0243116 0.437441 -0.0378265
-0.0273103 0.424562 -0.0170199
-0.0299714 0.361429 -0.00206299
-0.0519784 0.116496 -0.207582
-0.0540078 0.158218 -0.235783
-0.0587656 0.187898 -0.23504
-0.0669711 0.203279 -0.215575
-0.0810238 0.202469 -0.189536
-0.102526 0.186227 -0.167458
-0.129921 0.167209 -0.158455
-0.161484 0.147847 -0.149933
-0.189858 0.129201 -0.126282
-0.208308 0.113201 -0.0839109
-0.214636 0.0991675 -0.0267943
-0.209312 0.0893338 0.0295076
-0.194249 0.0914446 0.0671801
-0.173113 0.117413 0.0766098
-0.151295 0.171827 0.0592309
-0.133972 0.256531 0.0268643
-0.121035 0.36073 -0.00273551
-0.110265 0.445752 -0.0185226
-0.0999682 0.49188 -0.0208132
-0.0893588 0.482192 -0.014596
-0.0773664 0.411024 -0.00681004
-0.0701222 0.113426 -0.157732
-0.0709209 0.148105 -0.1759
-0.069076 0.170279 -0.171684
-0.06572 0.181091 -0.154986
-0.0638065 0.179923 -0.136348
-0.0674639 0.168115 -0.123911
-0.0778309 0.155848 -0.119745
-0.09617 0.142457 -0.108553
-0.117677 0.125423 -0.0744545
-0.137805 0.104642 -0.0153613
-0.155009 0.0804899 0.0605239
-0.168627 0.0587506 0.13251
-0.177721 0.0521215 0.178565
-0.182356 0.0770488 0.186805
-0.183669 0.139323 0.158496
-0.183488 0.239718 0.107754
-0.179973 0.364061 0.0565082
-0.170154 0.467079 0.0195063
-0.153862 0.524226 0.000340212
-0.132617 0.516587 -0.00517751
-0.109398 0.43982 -0.00419448
-0.069905 0.0928041 -0.10568
-0.0664869 0.112863 -0.119375
-0.0556603 0.121384 -0.120597
-0.0390666 0.124073 -0.117675
-0.0202924 0.122427 -0.117333
-0.0056369 0.118591 -0.123206
0.00105145 0.119312 -0.129257
-0.00440132 0.120261 -0.117555
-0.0198911 0.114149 -0.0729556
-0.042792 0.0973734 0.0039401
-0.0717478 0.0703855 0.0994564
-0.104498 0.0416205 0.187546
-0.137075 0.0279783 0.242589
-0.165931 0.049867 0.251372
-0.188264 0.11454 0.215917
-0.203034 0.222471 0.153161
-0.207289 0.357609 0.0886937
-0.197961 0.470376 0.0391534
-0.176962 0.533112 0.0108659
-0.148086 0.525894 -0.000321684
-0.117757 0.446522 -0.00241253
-0.0569302 0.0560411 -0.0658972
-0.0482587 0.0563925 -0.0841641
-0.0292352 0.0484219 -0.101515
-0.0013942 0.0420885 -0.123156
0.0311865 0.0415089 -0.149968
0.0608282 0.0495959 -0.179291
0.0813238 0.0687704 -0.197145
0.0859852 0.090639 -0.183665
0.0742907 0.102611 -0.125909
0.047486 0.0967696 -0.0286655
0.00725882 0.0730071 0.08767
-0.0422415 0.0415854 0.191594
-0.0941292 0.0226549 0.254689
-0.14158 0.0397004 0.263593
-0.178435 0.101487 0.222419
-0.201546 0.208801 0.151613
-0.207839 0.345038 0.0802179
-0.195197 0.458844 0.0259912
-0.168222 0.521485 -0.00336041
-0.133103 0.513277 -0.0128196
-0.0989997 0.433631 -0.011787
-0.0382852 0.00729615 -0.0416117
-0.0263586 -0.013562 -0.0712012
-0.00279629 -0.0373228 -0.11201
0.0311168 -0.0498897 -0.16487
0.0711093 -0.0455195 -0.223106
0.109521 -0.0213199 -0.276459
0.138554 0.019871 -0.304571
0.1494 0.0656322 -0.28672
0.139191 0.0984419 -0.213434
0.108268 0.106275 -0.0949797
0.0589383 0.0886139 0.0409534
-0.00279338 0.0571706 0.157806
-0.0675408 0.0344606 0.225376
-0.125762 0.04593 0.231411
-0.168628 0.101472 0.18344
-0.191654 0.202259 0.105983
-0.192297 0.332209 0.0312839
-0.170843 0.440104 -0.0221028
-0.135131 0.497985 -0.0461642
-0.0937526 0.48685 -0.0471368
-0.0572136 0.408281 -0.036547
-0.0145266 -0.0461055 -0.0235883
-0.0032419 -0.0853275 -0.0665243
0.0185739 -0.120884 -0.131482
0.0504916 -0.134753 -0.215264
0.0892242 -0.12116 -0.303877
0.127741 -0.0782121 -0.378493
0.157759 -0.0143482 -0.413565
0.169625 0.0537105 -0.38864
0.158241 0.105139 -0.298893
0.123208 0.124956 -0.160875
0.0675207 0.112983 -0.00948922
-0.00116885 0.0823032 0.114383
-0.0716234 0.0569769 0.179762
-0.132264 0.063277 0.176659
-0.172198 0.111522 0.117251
-0.185881 0.203489 0.030368
-0.173015 0.322936 -0.0485974
-0.136794 0.421116 -0.0994846
-0.0883074 0.471248 -0.114757
-0.0391089 0.455821 -0.102645
3.42139e-06 0.378811 -0.0768116
0.014014 -0.0952454 -0.00209799
0.0211669 -0.147378 -0.0545219
0.0352167 -0.188145 -0.138156
0.0576152 -0.198361 -0.245381
0.086411 -0.172225 -0.356713
0.116525 -0.110785 -0.446189
0.139794 -0.0271445 -0.48387
0.146886 0.0582924 -0.450464
0.131486 0.122736 -0.346522
0.0923561 0.150129 -0.194797
0.0331038 0.14148 -0.0361375
-0.0373721 0.111193 0.0856969
-0.106813 0.0840305 0.140193
-0.162476 0.0859432 0.120508
-0.191789 0.127296 0.0439588
-0.189512 0.209346 -0.0566482
-0.15776 0.315822 -0.143092
-0.102981 0.402085 -0.192444
-0.039148 0.44309 -0.198682
0.0194221 0.423785 -0.171724
0.0615866 0.348897 -0.127748
0.0442583 -0.132753 0.0258663
0.0451463 -0.190271 -0.0286392
0.0473495 -0.229201 -0.120046
0.0548883 -0.231355 -0.236146
0.0683159 -0.192148 -0.355439
0.0842182 -0.115381 -0.449563
0.0962983 -0.0183715 -0.486361
0.0960201 0.0766637 -0.447861
0.0766157 0.146504 -0.338945
0.0356566 0.175864 -0.186775
-0.0230654 0.167505 -0.0342232
-0.0902074 0.136858 0.0752864
-0.153485 0.108442 0.113449
-0.199993 0.106804 0.0765926
-0.216232 0.141693 -0.0148203
-0.197129 0.213595 -0.126315
-0.147101 0.306408 -0.218775
-0.0756266 0.38044 -0.267298
0.00151421 0.412881 -0.267406
0.0678662 0.39139 -0.230325
0.112303 0.320135 -0.172597
0.070877 -0.154768 0.0580137
0.0653357 -0.210501 0.0116492
0.0549068 -0.242016 -0.0737847
0.0463517 -0.233753 -0.184256
0.0421091 -0.182808 -0.298404
0.0417029 -0.0963301 -0.388428
0.0408517 0.00601931 -0.422308
0.0331185 0.101388 -0.384631
0.0121625 0.16846 -0.281789
-0.0259136 0.194066 -0.142431
-0.0781063 0.183136 -0.00775375
-0.135957 0.151781 0.0820274
-0.188534 0.123361 0.102026
-0.223795 0.119989 0.0510589
-0.228032 0.149848 -0.0494419
-0.196639 0.212554 -0.165568
-0.135284 0.29239 -0.26008
-0.0547068 0.354764 -0.307404
0.0289598 0.379733 -0.304758
0.0985616 0.357496 -0.263209
0.143276 0.29166 -0.198235
0.0872608 -0.160486 0.0869979
0.0762971 -0.209193 0.0555827
0.0558622 -0.230708 -0.0131564
0.0338538 -0.212458 -0.106934
0.0150135 -0.154233 -0.206543
0.0013299 -0.0653973 -0.28598
-0.00910149 0.0335439 -0.316271
-0.0211813 0.12114 -0.284433
-0.0406124 0.179448 -0.197148
-0.0718737 0.19809 -0.0808036
-0.113575 0.183866 0.0281918
-0.15902 0.152774 0.0952363
-0.19938 0.126049 0.0997252
-0.223844 0.122609 0.0419374
-0.220118 0.148684 -0.0576964
-0.18395 0.202853 -0.168647
-0.120248 0.270596 -0.257997
-0.0398265 0.322467 -0.302418
0.0421174 0.341656 -0.29951
0.109276 0.320455 -0.25908
0.151525 0.26186 -0.195309
0.0877391 -0.152529 0.100967
0.0739103 -0.19138 0.0863371
0.0488373 -0.20309 0.0392703
0.0203897 -0.178685 -0.0307244
-0.00593968 -0.119828 -0.109012
-0.0265971 -0.0366257 -0.173078
-0.0419383 0.0512879 -0.199131
-0.0546207 0.125079 -0.176726
-0.069679 0.17074 -0.111986
-0.0916734 0.181527 -0.0256886
-0.120313 0.16496 0.0533527
-0.151364 0.13602 0.0982164
-0.17842 0.113039 0.0932364
-0.193551 0.111289 0.0391128
-0.186484 0.135354 -0.0470256
-0.153283 0.182662 -0.140784
-0.0980003 0.239638 -0.216177
-0.0292595 0.281844 -0.254303
0.0408731 0.29608 -0.252271
0.0984368 0.276727 -0.218307
0.13486 0.2263 -0.163871
-0.134224 0.00849241 -0.00870656
-0.15208 -0.0173644 -0.0107724
-0.156755 -0.0557618 -0.020638
-0.144905 -0.100536 -0.040925
-0.115809 -0.143848 -0.0690504
-0.073504 -0.177063 -0.101788
-0.0243796 -0.188023 -0.130585
0.0239643 -0.172056 -0.151668
0.062855 -0.130806 -0.161457
0.0854721 -0.0729803 -0.156063
0.0889982 -0.0106204 -0.138
0.074278 0.0422803 -0.110905
0.0465884 0.0745789 -0.0781974
0.0124585 0.07991 -0.0414662
-0.0219946 0.061018 -0.0046481
-0.051597 0.0262548 0.0303329
-0.0727194 -0.0124883 0.0613325
-0.0830035 -0.0441731 0.0824634
-0.0833041 -0.0624868 0.0931969
-0.076014 -0.0636591 0.088983
-0.0654465 -0.0529274 0.0727021
-0.10478 0.0162986 0.0145568
-0.118715 -0.0167905 0.0206044
-0.12051 -0.0654062 0.0154721
-0.106582 -0.120697 -0.00481701
-0.0763762 -0.171577 -0.0390873
-0.034431 -0.20953 -0.0838138
0.0130342 -0.220516 -0.12765
0.0591236 -0.19825 -0.164772
0.0960032 -0.144476 -0.190867
0.117099 -0.0698412 -0.19959
0.12066 0.0109054 -0.192111
0.107574 0.0801206 -0.17129
0.0830302 0.123296 -0.139559
0.0524711 0.131561 -0.0974058
0.0203747 0.108102 -0.0487823
-0.00960793 0.0632836 0.0043577
-0.0340246 0.0121189 0.0576394
-0.0500395 -0.0321078 0.0994839
-0.0578374 -0.0605876 0.125452
-0.0587397 -0.0678352 0.128326
-0.0560265 -0.059163 0.109485
-0.0337645 0.0220209 0.0351157
-0.0370793 -0.0156619 0.0483245
-0.0334043 -0.0708159 0.049246
-0.0196845 -0.132973 0.0323468
0.00470926 -0.188802 -0.00329307
0.0360506 -0.229699 -0.0558099
0.0700902 -0.239667 -0.112885
0.102114 -0.211575 -0.166958
0.127449 -0.14717 -0.211722
0.141878 -0.0579095 -0.239256
0.144489 0.0389832 -0.248372
0.136708 0.122674 -0.240312
0.122174 0.175691 -0.215811
0.104151 0.18734 -0.173681
0.0833051 0.160933 -0.116844
0.0600524 0.108258 -0.047041
0.0365741 0.0470385 0.029532
0.0155338 -0.00816085 0.0952478
-0.00236429 -0.0462387 0.140417
-0.016216 -0.0606221 0.154765
-0.0268073 -0.0564668 0.137989
0.0592572 0.0266733 0.0368963
0.0693773 -0.0109351 0.0520031
0.0787941 -0.0665389 0.0563685
0.0894265 -0.129011 0.0448477
0.102176 -0.184359 0.012698
0.114683 -0.22518 -0.0412053
0.126145 -0.234089 -0.105911
0.135707 -0.202598 -0.17281
0.143356 -0.132368 -0.233013
0.147492 -0.0345566 -0.278007
0.149051 0.0722768 -0.303952
0.149915 0.165295 -0.310254
0.151227 0.225059 -0.295948
0.15272 0.239731 -0.258045
0.150396 0.212458 -0.198034
0.140008 0.15629 -0.116368
0.121888 0.0902725 -0.0205453
0.0979441 0.0285539 0.067238
0.0701298 -0.0160182 0.1317
0.0414245 -0.0369155 0.160689
0.0151647 -0.0392211 0.15111
0.146361 0.0321366 0.00887713
0.168029 0.00141994 0.0171914
0.180774 -0.0468789 0.0202244
0.185059 -0.102128 0.0128075
0.18167 -0.152129 -0.0117732
0.170766 -0.190487 -0.059906
0.155348 -0.199667 -0.124557
0.139005 -0.169724 -0.195905
0.125895 -0.101179 -0.263251
0.118387 -0.00396862 -0.318128
0.119444 0.103551 -0.354558
0.131139 0.198233 -0.370753
0.1517 0.26021 -0.364958
0.176837 0.277556 -0.333114
0.197221 0.253122 -0.274998
0.204596 0.200488 -0.189289
0.196406 0.138283 -0.0829778
0.173763 0.0778372 0.0192795
0.139191 0.0323996 0.0995676
0.0981053 0.00717798 0.143146
0.0582049 -0.0032221 0.144799
0.197677 0.0388138 -0.0550706
0.22508 0.0210285 -0.0610095
0.236932 -0.012284 -0.0626134
0.232365 -0.0536362 -0.0656138
0.212184 -0.0936917 -0.0795369
0.178512 -0.128298 -0.114079
0.137614 -0.139888 -0.169189
0.0967726 -0.117275 -0.23486
0.0644542 -0.059158 -0.298617
0.0471205 0.0269484 -0.352347
0.0494744 0.124629 -0.389018
0.0733074 0.212391 -0.406928
0.114016 0.271731 -0.405038
0.1635 0.291854 -0.379491
0.207759 0.275283 -0.328223
0.234694 0.234956 -0.247882
0.239626 0.187116 -0.143341
0.222462 0.137708 -0.0374287
0.186558 0.0985828 0.0507153
0.138909 0.0721514 0.105738
0.0907796 0.0525071 0.119937
0.194059 0.0496213 -0.139566
0.219582 0.0489951 -0.163856
0.226055 0.0359204 -0.172045
0.212133 0.012664 -0.171373
0.17819 -0.0154267 -0.173469
0.127616 -0.0464794 -0.190157
0.0686891 -0.0627907 -0.229159
0.0106063 -0.0524664 -0.28045
-0.0348501 -0.0127783 -0.329841
-0.0579573 0.052496 -0.369959
-0.0528911 0.130414 -0.394294
-0.0185375 0.203044 -0.403069
0.0384635 0.255101 -0.397926
0.107257 0.278263 -0.376744
0.17082 0.275006 -0.336211
0.214702 0.255966 -0.270573
0.232652 0.233391 -0.180887
0.224154 0.205093 -0.0845946
0.192738 0.179796 0.000535463
0.146479 0.155593 0.0597698
0.0983618 0.125943 0.0840198
0.143848 0.0632655 -0.218209
0.16169 0.0809619 -0.257432
0.160385 0.0887459 -0.269751
0.138938 0.084425 -0.264051
0.0972907 0.0683395 -0.253422
0.0387761 0.0405035 -0.251312
-0.0281967 0.0185593 -0.271577
-0.0940736 0.0132869 -0.303788
-0.145456 0.0294064 -0.332198
-0.17066 0.0671102 -0.35027
-0.163484 0.117942 -0.353394
-0.123583 0.169076 -0.345438
-0.0583654 0.21016 -0.332416
0.0201657 0.236671 -0.315213
0.0941909 0.251195 -0.290011
0.148817 0.261563 -0.248429
0.177252 0.273795 -0.186083
0.178805 0.275629 -0.112373
0.157187 0.270514 -0.0412318
0.120082 0.251919 0.0140516
0.0803244 0.211725 0.043515
0.070015 0.0783426 -0.264331
0.07821 0.111718 -0.309245
0.0701043 0.136608 -0.319384
0.0455218 0.147799 -0.30566
0.00377115 0.141992 -0.282767
-0.0530842 0.117222 -0.264997
-0.117936 0.0900074 -0.268872
-0.182546 0.0694865 -0.282815
-0.233504 0.0615292 -0.289522
-0.258624 0.0696819 -0.283174
-0.251952 0.0902508 -0.261896
-0.213638 0.11643 -0.234373
-0.15048 0.14407 -0.212057
-0.073918 0.173578 -0.199596
-0.000348537 0.207951 -0.193376
0.0565015 0.251913 -0.182431
0.0904242 0.304599 -0.156062
0.101064 0.342167 -0.114223
0.0918045 0.360946 -0.0658427
0.0690176 0.349607 -0.0219835
0.0432866 0.298942 0.00756162
-0.00433187 0.0913279 -0.263527
-0.00397959 0.134 -0.302802
-0.0142366 0.168661 -0.304864
-0.035021 0.189379 -0.282381
-0.067938 0.190858 -0.251265
-0.113357 0.169502 -0.225686
-0.166729 0.139958 -0.220375
-0.222423 0.108826 -0.221507
-0.268378 0.081603 -0.210217
-0.293242 0.0637782 -0.18134
-0.291617 0.0558682 -0.136301
-0.263479 0.0572376 -0.0893142
-0.213621 0.0705545 -0.0576252
-0.151274 0.101843 -0.0497932
-0.0895014 0.154905 -0.062885
-0.0396295 0.231652 -0.083459
-0.00641379 0.324468 -0.0945431
0.0104632 0.397876 -0.0875115
0.0136408 0.44049 -0.0659945
0.00733892 0.436403 -0.0385868
-0.00191591 0.376147 -0.0145821
-0.0581541 0.094984 -0.220284
-0.060058 0.137707 -0.246023
-0.0657335 0.17277 -0.238158
-0.0752965 0.195924 -0.21028
-0.091577 0.201716 -0.178449
-0.118048 0.185545 -0.15544
-0.153466 0.159182 -0.150043
-0.195521 0.125837 -0.145285
-0.23448 0.0887799 -0.121099
-0.260607 0.0533433 -0.0732064
-0.269018 0.0230912 -0.00689266
-0.258675 0.00301306 0.0578037
-0.23133 0.00257404 0.0981431
-0.192805 0.0336592 0.102148
-0.151664 0.101308 0.0721233
-0.116138 0.205451 0.0239967
-0.0891319 0.332735 -0.0196302
-0.0696238 0.437248 -0.0437878
-0.0562043 0.500344 -0.0474631
-0.0472977 0.50236 -0.0372663
-0.041328 0.434269 -0.022035
-0.0838575 0.0827756 -0.154911
-0.0818532 0.115318 -0.166695
-0.0766167 0.141175 -0.153681
-0.0690701 0.160032 -0.129125
-0.0635627 0.167948 -0.107302
-0.0667358 0.160089 -0.0976442
-0.080958 0.144238 -0.100319
-0.107463 0.119478 -0.0948828
-0.139397 0.0849306 -0.0609054
-0.168817 0.0434184 0.00423795
-0.191038 2.79876e-05 0.0904263
-0.203273 -0.0356997 0.171694
-0.203622 -0.0480926 0.220559
-0.193871 -0.0196063 0.222596
-0.17768 0.0564694 0.180148
-0.160074 0.179275 0.111949
-0.142226 0.331314 0.045364
-0.122699 0.458468 -0.00110977
-0.101879 0.536211 -0.0230452
-0.0810195 0.542193 -0.0260289
-0.0635234 0.46862 -0.019046
-0.0840108 0.0516027 -0.0919872
-0.0738531 0.0652963 -0.0970753
-0.0542433 0.0742892 -0.0896555
-0.0273548 0.0840385 -0.0810879
0.000835319 0.0932641 -0.0812752
0.0210641 0.0975502 -0.0938465
0.0274997 0.0997236 -0.109489
0.0155608 0.0941813 -0.104739
-0.0109195 0.0744441 -0.0601698
-0.0454781 0.0388251 0.0237848
-0.0831897 -0.00756479 0.13064
-0.119019 -0.0519875 0.228385
-0.147317 -0.0736645 0.285776
-0.16572 -0.050127 0.287285
-0.173254 0.027311 0.236618
-0.172143 0.158138 0.156093
-0.162401 0.322649 0.0771617
-0.142841 0.461564 0.019488
-0.116264 0.546527 -0.0105108
-0.0867663 0.55377 -0.0186395
-0.0620479 0.477748 -0.0151144
-0.0643051 0.00316078 -0.0480293
-0.0447921 -0.00799509 -0.058077
-0.011971 -0.019524 -0.0693209
0.0311658 -0.0206652 -0.0891633
0.0773773 -0.00923404 -0.120821
0.115862 0.0112303 -0.160318
0.138042 0.0378 -0.189367
0.13662 0.0597958 -0.182662
0.112564 0.0644089 -0.123642
0.0713597 0.0442773 -0.0175467
0.0186036 0.00344851 0.11125
-0.0382673 -0.0433746 0.224701
-0.0902079 -0.0715988 0.288922
-0.131072 -0.0549048 0.28885
-0.155922 0.017467 0.231298
-0.164839 0.146181 0.143097
-0.157659 0.311002 0.0594877
-0.13448 0.450686 0.000352294
-0.101128 0.535434 -0.0273772
-0.0646195 0.541618 -0.031083
-0.0358499 0.465183 -0.0230938
-0.0335456 -0.0580735 -0.0258661
-0.00774574 -0.0959502 -0.0499212
0.0328168 -0.127773 -0.0889346
0.0843252 -0.13717 -0.14505
0.139091 -0.120011 -0.212538
0.186645 -0.0792471 -0.278492
0.217113 -0.0244907 -0.317903
0.22096 0.0287911 -0.305078
0.196656 0.0617535 -0.227924
0.148981 0.0614526 -0.0980598
0.0842511 0.0307044 0.0514933
0.0119834 -0.0145274 0.17717
-0.0561417 -0.0470172 0.243723
-0.110829 -0.0379109 0.238175
-0.143978 0.0252942 0.172128
-0.15417 0.144619 0.0776638
-0.141535 0.300784 -0.00645876
-0.109007 0.432905 -0.0605056
-0.0660914 0.511747 -0.078001
-0.0224734 0.514271 -0.0685677
0.00938377 0.438681 -0.0480182
0.00630512 -0.123858 -0.0135685
0.0328522 -0.185401 -0.054673
0.0720284 -0.23315 -0.122776
0.120464 -0.245996 -0.214817
0.171675 -0.219204 -0.316408
0.216437 -0.156124 -0.404766
0.244977 -0.0727468 -0.44958
0.247557 0.01004 -0.426437
0.220166 0.0692328 -0.32912
0.166769 0.0875666 -0.176702
0.0941914 0.067262 -0.0108181
0.0135162 0.0252488 0.120278
-0.0620008 -0.00967462 0.181175
-0.120745 -0.00742947 0.162427
-0.152196 0.0455159 0.0819309
-0.153585 0.152804 -0.0225635
-0.127363 0.295126 -0.108926
-0.0794287 0.41512 -0.156271
-0.0226635 0.484511 -0.159317
0.029736 0.481741 -0.131026
0.0650925 0.407407 -0.0906107
0.0521152 -0.183494 0.00267985
0.0741852 -0.262054 -0.051079
0.103278 -0.318111 -0.141715
0.138064 -0.329074 -0.26081
0.174088 -0.289755 -0.387151
0.204958 -0.205639 -0.490108
0.221996 -0.0977822 -0.534772
0.216419 0.00859172 -0.498986
0.183243 0.0873995 -0.383506
0.125072 0.119418 -0.214815
0.0489159 0.107131 -0.041689
-0.0332582 0.0682482 0.0845542
-0.107746 0.0320814 0.129699
-0.161654 0.0285485 0.0888501
-0.182452 0.0719652 -0.0132429
-0.167751 0.1658 -0.133718
-0.122095 0.291331 -0.227236
-0.0547444 0.396485 -0.26996
0.0184414 0.454735 -0.258967
0.0813969 0.447223 -0.210028
0.120993 0.375021 -0.146155
0.0961332 -0.22751 0.0278573
0.110158 -0.313578 -0.0298074
0.123255 -0.36941 -0.130167
0.13731 -0.373529 -0.259417
0.151317 -0.321647 -0.393671
0.161708 -0.221141 -0.499558
0.162744 -0.0971828 -0.540176
0.147214 0.0229018 -0.495588
0.109686 0.111774 -0.372222
0.0506894 0.150493 -0.202113
-0.0232719 0.142456 -0.0364603
-0.100371 0.105778 0.0740391
-0.167593 0.069148 0.0982231
-0.211882 0.0610023 0.0355705
-0.219489 0.0956196 -0.0850247
-0.187929 0.175889 -0.218448
-0.123872 0.283923 -0.318343
-0.0396162 0.373784 -0.358795
0.0474711 0.421553 -0.338704
0.118999 0.411134 -0.275935
0.162025 0.342979 -0.194649
0.131433 -0.250875 0.0601738
0.135982 -0.334542 0.0102454
0.13118 -0.3828 -0.0842229
0.122599 -0.376964 -0.20711
0.112291 -0.314368 -0.334249
0.100692 -0.204674 -0.433296
0.0850847 -0.0749971 -0.467826
0.0608892 0.0468409 -0.421389
0.0232394 0.135156 -0.302765
-0.0300408 0.172967 -0.146151
-0.0941988 0.165151 -0.000706394
-0.159059 0.129842 0.0868809
-0.213719 0.0940061 0.0897794
-0.246046 0.0833325 0.0107149
-0.241799 0.110711 -0.120251
-0.198626 0.178603 -0.258869
-0.124082 0.269905 -0.36123
-0.0312979 0.345178 -0.400392
0.0622774 0.383659 -0.377426
0.137622 0.372014 -0.309676
0.182307 0.31047 -0.220637
0.149724 -0.25223 0.0906029
0.145297 -0.325942 0.0562876
0.125395 -0.362416 -0.0200156
0.0978359 -0.346433 -0.123854
0.0679602 -0.277954 -0.23338
0.0394514 -0.167911 -0.318573
0.0126783 -0.0435375 -0.346979
-0.0150448 0.0691423 -0.305208
-0.0484307 0.148368 -0.202799
-0.0909435 0.180029 -0.0714277
-0.140599 0.170398 0.045501
-0.189775 0.136864 0.108119
-0.230297 0.103587 0.0947383
-0.251214 0.0925377 0.00966174
-0.239832 0.114559 -0.118502
-0.193546 0.171076 -0.250311
-0.118427 0.246946 -0.34703
-0.0273414 0.308912 -0.384048
0.063742 0.339854 -0.362834
0.136979 0.328952 -0.298868
0.180543 0.27604 -0.213602
0.144327 -0.234135 0.105119
0.133264 -0.293669 0.0883312
0.104727 -0.317764 0.0356535
0.0674482 -0.295199 -0.0414212
0.0283506 -0.22785 -0.126043
-0.00721343 -0.126512 -0.19273
-0.0372825 -0.0166026 -0.215266
-0.0626022 0.0791497 -0.183454
-0.0876258 0.143456 -0.106027
-0.116778 0.166324 -0.00810652
-0.149713 0.154543 0.0760686
-0.182037 0.123973 0.115832
-0.208103 0.0952117 0.0951688
-0.220067 0.0861546 0.0183123
-0.20713 0.10543 -0.0909454
-0.166468 0.152978 -0.201101
-0.102517 0.215122 -0.282036
-0.0254221 0.26473 -0.31402
0.0526872 0.289066 -0.297655
0.116303 0.279642 -0.245509
0.155122 0.236013 -0.175227
-0.187538 -0.0266359 -0.0123507
-0.210317 -0.0601518 -0.0206897
-0.21627 -0.101212 -0.037401
-0.201505 -0.142522 -0.0640096
-0.166364 -0.177195 -0.0961087
-0.116703 -0.198412 -0.131157
-0.0605218 -0.196208 -0.15949
-0.00635098 -0.166894 -0.17818
0.0367024 -0.11292 -0.184918
0.0618663 -0.0441208 -0.176969
0.0662585 0.0269793 -0.157277
0.0510918 0.0848949 -0.129374
0.0224244 0.116366 -0.0960915
-0.0121176 0.112811 -0.0582416
-0.0453113 0.0769252 -0.0194167
-0.0712364 0.0182718 0.0181972
-0.0861157 -0.0476797 0.0523121
-0.0884497 -0.10228 0.0758869
-0.0803065 -0.134462 0.0880447
-0.0656302 -0.137496 0.0840273
-0.050235 -0.116577 0.0675848
-0.162453 -0.0187424 0.0092437
-0.182103 -0.0606254 0.00896803
-0.185374 -0.113099 -0.00336923
-0.168064 -0.165849 -0.0301277
-0.1308 -0.208542 -0.0683144
-0.0802437 -0.234864 -0.115283
-0.0246099 -0.232772 -0.158058
0.0281664 -0.196666 -0.191938
0.0698578 -0.128786 -0.214107
0.0939407 -0.0411181 -0.219846
0.0988561 0.0511027 -0.210997
0.085813 0.128235 -0.190394
0.0607703 0.172844 -0.159618
0.0303806 0.172935 -0.117821
8.88461e-05 0.131344 -0.0681651
-0.025694 0.059596 -0.0124011
-0.0434552 -0.0232053 0.0450978
-0.0513816 -0.0946809 0.0910381
-0.0509586 -0.140206 0.120237
-0.0449103 -0.150557 0.124709
-0.0379029 -0.130758 0.1061
-0.0857573 -0.00973054 0.0253639
-0.0939418 -0.056726 0.0333662
-0.0910703 -0.116903 0.0287317
-0.07369 -0.177898 0.00730692
-0.042287 -0.227118 -0.0304937
-0.00245591 -0.258196 -0.0836235
0.0394466 -0.256604 -0.138416
0.0777726 -0.215693 -0.188374
0.107453 -0.13726 -0.22888
0.124531 -0.0338406 -0.253815
0.128317 0.0768477 -0.26276
0.120618 0.171509 -0.256926
0.105783 0.228922 -0.235929
0.0881223 0.234386 -0.196684
0.0691611 0.190243 -0.140676
0.0496958 0.109342 -0.0688722
0.0321459 0.0136799 0.0126413
0.0180363 -0.0717946 0.0842208
0.00690731 -0.129315 0.135029
-0.00137361 -0.14803 0.153169
-0.00871917 -0.132452 0.138
0.0211119 -0.000809718 0.0192895
0.0280569 -0.0473973 0.0304265
0.0376231 -0.108463 0.0320017
0.0516844 -0.171024 0.019406
0.0702875 -0.221878 -0.0116426
0.0896854 -0.255669 -0.0630257
0.107258 -0.25625 -0.123349
0.121514 -0.214773 -0.185037
0.13228 -0.1325 -0.240842
0.137927 -0.0211095 -0.283926
0.139873 0.100528 -0.311178
0.140414 0.206845 -0.321948
0.141266 0.274009 -0.313982
0.142912 0.285391 -0.28201
0.142029 0.242498 -0.225414
0.134375 0.159058 -0.143158
0.120726 0.0583111 -0.042436
0.101919 -0.0345127 0.0523701
0.0789378 -0.0995127 0.124724
0.0539943 -0.125445 0.160356
0.0298518 -0.116558 0.154467
0.127148 0.0079691 -0.0193591
0.14749 -0.0305869 -0.0142475
0.161011 -0.0839235 -0.0112061
0.167734 -0.139926 -0.01569
0.167801 -0.187505 -0.0350021
0.160839 -0.222021 -0.0767353
0.148668 -0.227165 -0.134646
0.134573 -0.191758 -0.199828
0.122529 -0.115102 -0.262779
0.114805 -0.00693437 -0.316314
0.115082 0.114519 -0.355038
0.125844 0.223419 -0.377149
0.145693 0.295167 -0.379711
0.170748 0.312496 -0.356362
0.192057 0.275897 -0.304331
0.201073 0.199179 -0.220004
0.195919 0.10473 -0.109784
0.176658 0.0149028 -0.000294966
0.145054 -0.0500798 0.0897932
0.106122 -0.0801082 0.142819
0.0675186 -0.0797016 0.150623
0.198453 0.0154861 -0.0934767