# vtk DataFile Version 2.0
Func
ASCII
DATASET RECTILINEAR_GRID
DIMENSIONS 21 21 21
X_COORDINATES 21 double
-4.7619
-4.28571
-3.80952
-3.33333
-2.85714
-2.38095
-1.90476
-1.42857
-0.952381
-0.47619
0
0.47619
0.952381
1.42857
1.90476
2.38095
2.85714
3.33333
3.80952
4.28571
4.7619
Y_COORDINATES 21 double
-4.7619
-4.28571
-3.80952
-3.33333
-2.85714
-2.38095
-1.90476
-1.42857
-0.952381
-0.47619
0
0.47619
0.952381
1.42857
1.90476
2.38095
2.85714
3.33333
3.80952
4.28571
4.7619
Z_COORDINATES 21 double
-4.7619
-4.28571
-3.80952
-3.33333
-2.85714
-2.38095
-1.90476
-1.42857
-0.952381
-0.47619
0
0.47619
0.952381
1.42857
1.90476
2.38095
2.85714
3.33333
3.80952
4.28571
4.7619
POINT_DATA 9261
SCALARS data double 3
LOOKUP_TABLE default
0.236824 0.195612 0.175661
0.260834 0.232655 0.238082
0.26757 0.23702 0.290919
0.258423 0.205227 0.329734
0.237915 0.139151 0.348918
0.214122 0.0498902 0.347032
0.194351 -0.0439697 0.324239
0.185891 -0.1263 0.280248
0.191087 -0.18281 0.218895
0.207851 -0.201029 0.150421
0.233626 -0.17674 0.0866109
0.263668 -0.113449 0.0408382
0.290981 -0.0246495 0.0228372
0.308694 0.0672644 0.0341299
0.312913 0.138138 0.066261
0.302434 0.166553 0.105364
0.279064 0.146246 0.137491
0.246694 0.0904299 0.147849
0.209189 0.0206839 0.137614
0.171329 -0.0416976 0.111213
0.138286 -0.0788378 0.0767109
0.283279 0.198679 0.216876
0.316766 0.241143 0.289998
0.330908 0.2491 0.351955
0.325299 0.217433 0.397275
0.303718 0.147782 0.419963
0.274537 0.0523181 0.417197
0.246174 -0.0485492 0.389911
0.227636 -0.137468 0.337676
0.222942 -0.198441 0.264691
0.231721 -0.216569 0.182925
0.25284 -0.187128 0.106199
0.28324 -0.114127 0.0498974
0.315834 -0.0131316 0.0250533
0.342904 0.0899083 0.0327702
0.358827 0.167676 0.0634973
0.360784 0.196108 0.101381
0.348096 0.168359 0.130641
0.322555 0.100463 0.13621
0.286435 0.0186389 0.121148
0.244573 -0.0526983 0.0916931
0.202573 -0.092463 0.0563728
0.292177 0.185789 0.233339
0.329772 0.230102 0.308838
0.348479 0.241194 0.371936
0.346055 0.212583 0.417563
0.324912 0.145975 0.439564
0.292257 0.0527015 0.434136
0.25636 -0.0466232 0.403739
0.227598 -0.134673 0.347564
0.211469 -0.194918 0.269922
0.209071 -0.211582 0.183469
0.22205 -0.179387 0.1025
0.249522 -0.102297 0.0424032
0.285581 0.00338906 0.0136626
0.322266 0.110248 0.0160647
0.3536 0.18925 0.0395905
0.374161 0.215286 0.0673069
0.380418 0.181276 0.084229
0.370792 0.105237 0.0796075
0.34522 0.0161258 0.0585748
0.307399 -0.0595987 0.0294983
0.262742 -0.0996004 0.00184912
0.260972 0.162059 0.218063
0.296331 0.20557 0.286639
0.315322 0.21958 0.343173
0.31385 0.196349 0.383009
0.293048 0.138248 0.400411
0.258488 0.0546583 0.392187
0.217602 -0.0347609 0.361028
0.180732 -0.114859 0.306172
0.154316 -0.169987 0.231393
0.141582 -0.184564 0.149148
0.146508 -0.152937 0.072873
0.170461 -0.0782897 0.0163294
0.209229 0.0239598 -0.0120939
0.2554 0.127102 -0.0145261
0.30287 0.202465 -0.0016124
0.344524 0.225128 0.00986945
0.373808 0.187645 0.00743436
0.385397 0.10903 -0.0110089
0.377178 0.018322 -0.0395462
0.350487 -0.0578271 -0.0658326
0.309476 -0.0971238 -0.0798524
0.192005 0.135087 0.17068
0.219384 0.175821 0.224392
0.234818 0.192176 0.268166
0.23309 0.175789 0.298179
0.214153 0.129953 0.309636
0.181443 0.0616359 0.300268
0.140948 -0.0114291 0.272153
0.101453 -0.077801 0.224079
0.0700629 -0.124605 0.15949
0.0514254 -0.13736 0.0897413
0.0510056 -0.110221 0.0265535
0.0720241 -0.0448077 -0.0190968
0.112185 0.046005 -0.0421103
0.165236 0.138417 -0.047186
0.22578 0.20614 -0.0453603
0.286192 0.225293 -0.0529891
0.337518 0.188074 -0.0783668
0.371131 0.113123 -0.113603
0.382963 0.026305 -0.149362
0.371334 -0.046528 -0.172152
0.338859 -0.0848325 -0.170201
0.099935 0.11362 0.0991181
0.117055 0.15124 0.131291
0.127503 0.169234 0.158149
0.125974 0.159703 0.1774
0.111078 0.127118 0.184858
0.0843094 0.0762137 0.178377
0.0498377 0.0223769 0.158095
0.0143869 -0.0275211 0.122534
-0.0153462 -0.0645478 0.0750068
-0.0338096 -0.0761395 0.0248974
-0.0348806 -0.0565644 -0.0181391
-0.0142705 -0.00542707 -0.0466247
0.0272665 0.0680913 -0.0594812
0.0846471 0.144652 -0.064532
0.153393 0.201723 -0.0725189
0.226092 0.217515 -0.0987723
0.292787 0.183543 -0.147185
0.342805 0.116638 -0.199872
0.370738 0.0381281 -0.243859
0.372543 -0.0282174 -0.263525
0.349453 -0.0646171 -0.246832
0.00554937 0.102403 0.0170466
0.0142083 0.137495 0.0271152
0.0219813 0.155656 0.0389795
0.024284 0.151244 0.0514283
0.0183802 0.129716 0.0604884
0.00382911 0.0948539 0.0628648
-0.0175962 0.0596234 0.0554222
-0.0418193 0.0258528 0.0360161
-0.0626549 -0.00144116 0.00783166
-0.0744132 -0.0126179 -0.0215238
-0.0711426 -0.00245512 -0.0437964
-0.0483102 0.0315988 -0.0541801
-0.00567649 0.0846823 -0.0548337
0.0525898 0.14276 -0.0563105
0.122883 0.187713 -0.0691398
0.198226 0.200685 -0.107306
0.268938 0.17231 -0.17144
0.32425 0.116171 -0.237702
0.358218 0.0490841 -0.289584
0.365982 -0.00859159 -0.309665
0.347954 -0.0419121 -0.286012
-0.0789008 0.104616 -0.0608511
-0.0757048 0.137924 -0.0696444
-0.0670914 0.154894 -0.0681222
-0.0572036 0.152358 -0.0571727
-0.0497971 0.137109 -0.0419085
-0.0468619 0.113881 -0.0267751
-0.0493436 0.0933257 -0.0192578
-0.0552806 0.0734999 -0.022254
-0.0601667 0.0547113 -0.0323722
-0.0587846 0.0432395 -0.0430005
-0.0463379 0.0433577 -0.0463767
-0.0189512 0.0596395 -0.0392723
0.0239219 0.0916663 -0.0261659
0.0787817 0.130886 -0.0199629
0.142647 0.163861 -0.0314461
0.210005 0.174536 -0.0733299
0.272248 0.153043 -0.144371
0.320285 0.108951 -0.219275
0.348914 0.0545471 -0.278657
0.353898 0.00693142 -0.303543
0.335614 -0.0217653 -0.28247
-0.14764 0.116967 -0.120896
-0.147223 0.148131 -0.141627
-0.134984 0.16131 -0.144135
-0.115031 0.155861 -0.130054
-0.0921136 0.140865 -0.105856
-0.0692138 0.123157 -0.0773971
-0.0495162 0.11254 -0.0566486
-0.0334835 0.1037 -0.0468675
-0.0187558 0.0921784 -0.0436651
-0.00107216 0.0805471 -0.0403182
0.022557 0.0716493 -0.0286716
0.0547222 0.0717099 -0.00623483
0.0958503 0.0844632 0.0208542
0.143066 0.106524 0.0375718
0.194012 0.128939 0.032311
0.245174 0.138304 -0.00682999
0.290248 0.124155 -0.0779632
0.32286 0.0922067 -0.157411
0.338823 0.0509536 -0.223577
0.335393 0.0143688 -0.256529
0.313715 -0.00840424 -0.245134
-0.197274 0.1319 -0.151243
-0.198011 0.158739 -0.174371
-0.181922 0.1639 -0.173049
-0.152867 0.150422 -0.150761
-0.116211 0.12995 -0.116246
-0.0756391 0.112117 -0.0773825
-0.0361131 0.106937 -0.0492712
-9.08465e-05 0.106534 -0.0345861
0.0326865 0.101878 -0.0269044
0.0652996 0.0916057 -0.0179736
0.0988048 0.0766241 0.00167198
0.134333 0.0641642 0.0343873
0.172006 0.0613833 0.0728043
0.209547 0.0693033 0.100048
0.245283 0.0830288 0.103154
0.277846 0.0915424 0.0706758
0.303552 0.0841114 0.00430151
0.319025 0.0633293 -0.0758991
0.321206 0.0349517 -0.146805
0.308972 0.0097953 -0.188106
0.28392 -0.00508806 -0.189405
-0.230166 0.143889 -0.1487
-0.23358 0.162504 -0.164278
-0.217492 0.155217 -0.151825
-0.185096 0.128876 -0.11775
-0.141707 0.0984403 -0.0739728
-0.0914043 0.0763372 -0.0309049
-0.0400729 0.0735002 -0.00456987
0.00857475 0.0801277 0.00433297
0.0532803 0.082829 0.00541552
0.0958626 0.0761427 0.00981628
0.135624 0.0586937 0.0290949
0.172316 0.0381037 0.0657337
0.205747 0.0241603 0.111168
0.234252 0.0214558 0.146793
0.257059 0.0286394 0.157829
0.27478 0.0367088 0.132872
0.286043 0.0349869 0.0731498
0.289886 0.0239338 -0.00468086
0.284155 0.00738251 -0.077037
0.268605 -0.00645175 -0.124106
0.244532 -0.0122974 -0.136265
-0.247618 0.148198 -0.119285
-0.256991 0.154249 -0.119387
-0.247238 0.130397 -0.0903666
-0.220398 0.0876601 -0.042244
-0.180877 0.0451277 0.00890588
-0.132852 0.0172555 0.0494778
-0.081933 0.0160566 0.0647722
-0.032061 0.0300354 0.0573971
0.0150636 0.0415694 0.041281
0.0601201 0.0409526 0.0316288
0.101139 0.0243888 0.042759
0.136737 -0.000493232 0.0772738
0.166404 -0.0218645 0.125138
0.188992 -0.0322427 0.166038
0.204805 -0.0299053 0.183085
0.215905 -0.0221935 0.164493
0.222514 -0.019443 0.111158
0.224945 -0.0223917 0.037933
0.221514 -0.0287579 -0.0321665
0.211673 -0.0321176 -0.0807424
0.195467 -0.0285078 -0.0988034
-0.248267 0.141498 -0.0797426
-0.26585 0.130971 -0.0612351
-0.267752 0.0880097 -0.0135653
-0.254617 0.0278625 0.0495362
-0.229276 -0.0257868 0.107093
-0.195708 -0.0577173 0.141523
-0.157997 -0.0554383 0.140491
-0.11922 -0.0322526 0.110722
-0.0801998 -0.00984726 0.0711111
-0.0408708 -0.00218119 0.0415882
-0.00381583 -0.0153993 0.0397874
0.0287818 -0.0420141 0.0684265
0.0559882 -0.0685025 0.115768
0.0768535 -0.0849253 0.159881
0.0926069 -0.0867774 0.181595
0.106018 -0.0798652 0.168271
0.118041 -0.0739144 0.120683
0.129109 -0.0702162 0.0536296
0.137654 -0.0681147 -0.0113614
0.141775 -0.0622588 -0.0579271
0.139582 -0.0498425 -0.0773855
-0.228091 0.124385 -0.0543137
-0.252148 0.0951811 -0.0202956
-0.266356 0.0326507 0.0438717
-0.270149 -0.0434596 0.120788
-0.264694 -0.104986 0.184987
-0.253371 -0.137204 0.214977
-0.237755 -0.128139 0.199534
-0.219217 -0.0932762 0.149269
-0.196482 -0.0582263 0.087925
-0.169251 -0.0410486 0.039792
-0.140057 -0.0499377 0.0259917
-0.11163 -0.0774864 0.0495475
-0.0855991 -0.108548 0.0971668
-0.0632933 -0.13081 0.145559
-0.0431164 -0.137118 0.173178
-0.0223398 -0.131689 0.166122
0.000169803 -0.123529 0.124934
0.02438 -0.114219 0.064779
0.0487781 -0.105155 0.00544893
0.069793 -0.0916467 -0.0385967
0.0834351 -0.0716434 -0.0587676
-0.186594 0.10145 -0.0588183
-0.212023 0.0549752 -0.0178878
-0.23373 -0.0250125 0.056707
-0.251061 -0.113738 0.145462
-0.264144 -0.178856 0.218039
-0.275478 -0.207047 0.248584
-0.283914 -0.18799 0.225497
-0.288592 -0.139564 0.162462
-0.285422 -0.091274 0.0872951
-0.272917 -0.0650544 0.0276699
-0.253098 -0.0707668 0.00769106
-0.229175 -0.100828 0.0307928
-0.20389 -0.138228 0.0824902
-0.179615 -0.167997 0.13842
-0.155198 -0.180249 0.174898
-0.128462 -0.17748 0.176691
-0.0981838 -0.167992 0.143961
-0.0644302 -0.153776 0.0918538
-0.0282433 -0.138748 0.0378647
0.00572441 -0.118471 -0.00572815
0.0320916 -0.0915086 -0.029944
-0.123254 0.0783686 -0.102935
-0.141765 0.0183923 -0.0679065
-0.161303 -0.0728452 0.00791059
-0.183032 -0.16837 0.103932
-0.206877 -0.233559 0.187235
-0.234051 -0.254795 0.227043
-0.260801 -0.224273 0.207494
-0.284584 -0.162939 0.143955
-0.298394 -0.103295 0.0676304
-0.298697 -0.0705805 0.00796661
-0.286911 -0.0759633 -0.00864264
-0.266833 -0.111459 0.0219073
-0.242745 -0.158057 0.084568
-0.218654 -0.197963 0.154248
-0.194827 -0.218432 0.205192
-0.17003 -0.219869 0.221083
-0.142096 -0.209824 0.20113
-0.110231 -0.191189 0.157986
-0.0742193 -0.16982 0.106229
-0.0381838 -0.142079 0.0573997
-0.00755025 -0.108626 0.0217255
-0.0444914 0.0582523 -0.182042
-0.0468957 -0.00930959 -0.165449
-0.0528078 -0.105289 -0.0984944
-0.0666627 -0.201214 -0.00124875
-0.0893972 -0.263022 0.0926615
-0.12084 -0.275916 0.150005
-0.155459 -0.234565 0.146279
-0.189322 -0.162535 0.0962774
-0.21344 -0.0949405 0.0333809
-0.221699 -0.059152 -0.0131743
-0.215022 -0.0670966 -0.0158714
-0.197946 -0.110292 0.0302024
-0.176512 -0.167878 0.110239
-0.156621 -0.219379 0.199034
-0.140745 -0.249406 0.269166
-0.128269 -0.256149 0.303855
-0.115532 -0.246474 0.300494
-0.0997919 -0.224284 0.265862
-0.0788153 -0.196376 0.212406
-0.0544527 -0.161516 0.152401
-0.0304144 -0.121872 0.0971068
0.0303007 0.0430248 -0.261405
0.0482326 -0.0256087 -0.266364
0.0622433 -0.119318 -0.214309
0.0638325 -0.209366 -0.125108
0.0500343 -0.264382 -0.0272033
0.0238479 -0.268871 0.0463426
-0.00821896 -0.219571 0.063477
-0.0418054 -0.141293 0.0357063
-0.0673402 -0.0705819 -0.00464094
-0.0766102 -0.0354711 -0.0298961
-0.0705745 -0.0479575 -0.013896
-0.0546608 -0.0992205 0.0488032
-0.036614 -0.167229 0.144643
-0.0239617 -0.229565 0.249447
-0.0213636 -0.268909 0.336227
-0.0285062 -0.281454 0.388385
-0.0396426 -0.273195 0.400843
-0.0492014 -0.24857 0.373623
-0.0528754 -0.21539 0.317409
-0.0490882 -0.174832 0.247181
-0.0388423 -0.130329 0.173362
0.0920232 0.033619 -0.317818
0.127984 -0.029076 -0.343789
0.159903 -0.113805 -0.309219
0.176521 -0.193727 -0.230834
0.174736 -0.240937 -0.136783
0.158324 -0.239055 -0.0543045
0.134105 -0.186327 -0.0201688
0.107473 -0.107702 -0.0257936
0.0871509 -0.0389344 -0.0426204
0.0819521 -0.00759221 -0.0457909
0.0903511 -0.0252625 -0.0119228
0.106048 -0.0831467 0.0641529
0.120108 -0.159012 0.170354
0.124137 -0.229626 0.284518
0.112239 -0.276718 0.381654
0.0851258 -0.294924 0.445851
0.0503285 -0.289037 0.470855
0.0156692 -0.264054 0.450303
-0.0127718 -0.227516 0.395093
-0.0305873 -0.182793 0.318279
-0.0360298 -0.134595 0.23059
0.126743 0.0285924 -0.328317
0.17316 -0.0233124 -0.368138
0.214736 -0.0944657 -0.349615
0.241653 -0.161409 -0.28576
0.250174 -0.199958 -0.200926
0.244119 -0.19424 -0.120239
0.230106 -0.143289 -0.0788727
0.213211 -0.0704656 -0.0701079
0.201332 -0.00855096 -0.0698657
0.202721 0.016698 -0.0579333
0.21475 -0.00533535 -0.0141783
0.230559 -0.0663906 0.0656612
0.240843 -0.145333 0.171127
0.237289 -0.2196 0.283307
0.213725 -0.271149 0.379984
0.171758 -0.293787 0.447431
0.119461 -0.290978 0.479153
0.0662206 -0.267459 0.465983
0.0198971 -0.230397 0.41574
-0.0133414 -0.184236 0.339942
-0.0308534 -0.13452 0.248793
0.131376 0.0247463 -0.288108
0.175548 -0.0135654 -0.329636
0.214892 -0.0690588 -0.32264
0.242897 -0.12124 -0.27533
0.256668 -0.151156 -0.206516
0.258146 -0.14441 -0.139317
0.25292 -0.0997659 -0.101387
0.244629 -0.0376332 -0.0875806
0.240878 0.0137246 -0.0794578
0.247472 0.0318924 -0.0619834
0.261723 0.00765543 -0.0190427
0.276903 -0.0518202 0.0523877
0.284546 -0.127779 0.143856
0.277291 -0.199624 0.240719
0.24995 -0.250816 0.32502
0.203647 -0.274955 0.385687
0.146657 -0.274433 0.417345
0.0882314 -0.253161 0.411138
0.0366284 -0.217935 0.370703
-0.00159785 -0.174069 0.305554
-0.0236511 -0.12627 0.224568
0.259509 0.237081 0.176234
0.288828 0.279507 0.247209
0.30132 0.282105 0.310595
0.298123 0.241029 0.359577
0.284128 0.159621 0.386799
0.267714 0.0503137 0.390388
0.256311 -0.0633453 0.37013
0.256657 -0.1621 0.324246
0.270053 -0.228854 0.256313
0.292836 -0.249336 0.177983
0.321185 -0.218671 0.102337
0.350466 -0.141197 0.0449528
0.373754 -0.032972 0.0180599
0.385046 0.079512 0.0250388
0.381945 0.166824 0.0580578
0.364282 0.203565 0.103016
0.334851 0.181481 0.14415
0.297479 0.116585 0.163706
0.255728 0.0328661 0.161107
0.213725 -0.0435962 0.138666
0.175965 -0.0905165 0.102628
0.306559 0.243844 0.221335
0.348759 0.294124 0.305907
0.372996 0.301957 0.380637
0.378029 0.261724 0.437192
0.367137 0.176486 0.467358
0.348876 0.0603722 0.468366
0.331293 -0.0608967 0.441326
0.322727 -0.166732 0.384438
0.325966 -0.238549 0.301671
0.339253 -0.259352 0.207086
0.360372 -0.223441 0.11623
0.387292 -0.13537 0.0469934
0.413546 -0.013206 0.0129746
0.433046 0.112711 0.0167381
0.441919 0.209074 0.0493042
0.438141 0.247083 0.0941287
0.421367 0.217308 0.133136
0.392458 0.138678 0.148367
0.352552 0.0401101 0.141552
0.30549 -0.0483104 0.116788
0.256234 -0.100468 0.0808318
0.312981 0.232301 0.242985
0.361653 0.286379 0.331167
0.393799 0.299025 0.407255
0.405754 0.263283 0.463013
0.398834 0.18253 0.489988
0.379895 0.0703871 0.484991
0.356132 -0.0474778 0.45125
0.337216 -0.150751 0.387031
0.327587 -0.220941 0.296806
0.327203 -0.240142 0.19574
0.337442 -0.201925 0.100081
0.359259 -0.110343 0.0275419
0.38795 0.0162607 -0.00933291
0.417554 0.146254 -0.0101166
0.4439 0.244384 0.0154692
0.461731 0.280503 0.0494234
0.467035 0.244267 0.0744278
0.456383 0.15643 0.0779121
0.427843 0.04858 0.0646076
0.383908 -0.0465578 0.0412098
0.32958 -0.101482 0.0156782
0.276995 0.207937 0.231531
0.324154 0.262167 0.312609
0.358165 0.278759 0.38082
0.373141 0.250068 0.428584
0.36865 0.180458 0.447796
0.34929 0.081628 0.436147
0.321027 -0.0219815 0.397807
0.293295 -0.113302 0.331545
0.271601 -0.175689 0.241853
0.258652 -0.191828 0.144052
0.258899 -0.154925 0.0535905
0.276165 -0.0677193 -0.0138867
0.307857 0.0531125 -0.048772
0.348795 0.177346 -0.0534169
0.394242 0.270528 -0.0389138
0.436914 0.302594 -0.0231937
0.46889 0.262463 -0.0207537
0.482067 0.171538 -0.0335909
0.471854 0.0611034 -0.0554346
0.438428 -0.0357733 -0.0747184
0.38581 -0.0918153 -0.0825195
0.202213 0.179008 0.185656
0.240241 0.229783 0.250132
0.270251 0.24857 0.303219
0.284936 0.227823 0.338618
0.282477 0.173267 0.349506
0.264901 0.0943305 0.333966
0.236539 0.0129478 0.295914
0.205071 -0.0585656 0.234265
0.176923 -0.10816 0.153631
0.156796 -0.1203 0.0683372
0.151258 -0.0882875 -0.00786754
0.166228 -0.0128453 -0.0626248
0.201159 0.0928334 -0.09052
0.251986 0.202474 -0.0972368
0.314111 0.284998 -0.0948565
0.379194 0.311623 -0.101143
0.436412 0.270826 -0.125604
0.473748 0.183285 -0.158194
0.484307 0.076579 -0.188273
0.46547 -0.0172615 -0.202691
0.420201 -0.0730874 -0.19024
0.102651 0.154325 0.111286
0.128169 0.200111 0.151161
0.151246 0.219272 0.184537
0.16446 0.205465 0.207119
0.164733 0.166488 0.212917
0.151805 0.10953 0.199516
0.128131 0.0536974 0.168496
0.0994462 0.00558796 0.119003
0.0719034 -0.0287758 0.0560058
0.0515736 -0.0367298 -0.00830223
0.0461707 -0.0121714 -0.0621402
0.0626354 0.0465411 -0.0970833
0.101873 0.13088 -0.1126
0.160707 0.220202 -0.118352
0.234775 0.288468 -0.126372
0.315533 0.309324 -0.153711
0.390752 0.270692 -0.205003
0.446072 0.191085 -0.258311
0.473173 0.0930316 -0.29837
0.467417 0.00613147 -0.30923
0.430958 -0.0477582 -0.27913
0.00200599 0.139735 0.0219819
0.0168207 0.180189 0.0359369
0.0348141 0.196915 0.0516563
0.0499279 0.187047 0.066562
0.0577969 0.160162 0.0749679
0.0560208 0.122708 0.0723343
0.0446547 0.0912319 0.0559675
0.0266243 0.0657973 0.0246775
0.0079875 0.0468684 -0.0164968
-0.00489749 0.0428999 -0.0573901
-0.00418554 0.0588508 -0.0874626
0.0170371 0.0987185 -0.101163
0.0604601 0.159147 -0.101761
0.123444 0.22589 -0.102336
0.201968 0.278527 -0.114916
0.287358 0.294239 -0.155166
0.367648 0.260116 -0.224326
0.428422 0.191209 -0.293922
0.460976 0.105188 -0.344196
0.460253 0.0278224 -0.356807
0.428176 -0.0222453 -0.319832
-0.0861157 0.139114 -0.0660897
-0.078283 0.174585 -0.0750701
-0.0613267 0.186631 -0.0720068
-0.0401811 0.176012 -0.0585207
-0.0197307 0.154662 -0.0413969
-0.00418808 0.130611 -0.0273147
0.00350154 0.117854 -0.0247056
0.00435231 0.111741 -0.0355696
0.0028278 0.106511 -0.0545491
0.00477521 0.105963 -0.0728277
0.0169659 0.113394 -0.0802216
0.045266 0.134869 -0.0727897
0.0914007 0.172107 -0.0564132
0.153029 0.217165 -0.047051
0.226388 0.255281 -0.0570798
0.304034 0.266817 -0.100748
0.375029 0.238643 -0.17729
0.427099 0.181456 -0.25733
0.452633 0.108703 -0.317911
0.447704 0.0423007 -0.33841
0.414457 -0.00194146 -0.307171
-0.156159 0.150259 -0.135855
-0.151849 0.18033 -0.160396
-0.132342 0.184568 -0.163179
-0.101773 0.167116 -0.146148
-0.0657351 0.14344 -0.11727
-0.0294388 0.124525 -0.0853669
0.00179708 0.123827 -0.0648889
0.02649 0.132489 -0.0582495
0.0467993 0.138799 -0.0590684
0.0673775 0.141622 -0.0587902
0.0930417 0.142086 -0.0468131
0.127907 0.147804 -0.0199891
0.173354 0.165035 0.0139323
0.227455 0.191519 0.036436
0.287033 0.217633 0.0343182
0.346704 0.226608 -0.00560175
0.398149 0.204887 -0.0819107
0.432347 0.159256 -0.167726
0.443088 0.0999034 -0.237934
0.428207 0.0454942 -0.270642
0.390771 0.00873683 -0.254215
-0.20602 0.165349 -0.170649
-0.202973 0.188188 -0.199604
-0.179693 0.180181 -0.199464
-0.139531 0.150293 -0.17371
-0.0885804 0.117522 -0.13243
-0.032782 0.09654 -0.0869331
0.0204778 0.101625 -0.0558248
0.0675008 0.120743 -0.0408077
0.107989 0.136854 -0.0333231
0.145127 0.143842 -0.0235404
0.181641 0.140264 0.000387883
0.219879 0.134581 0.0412797
0.260922 0.136667 0.0898806
0.303489 0.148896 0.125401
0.345366 0.166012 0.133222
0.383608 0.173631 0.100943
0.412909 0.158009 0.0298531
0.427734 0.122926 -0.0578416
0.423282 0.076599 -0.135517
0.399006 0.0344291 -0.180616
0.358255 0.007246 -0.182217
-0.238904 0.178414 -0.16427
-0.238463 0.190414 -0.185303
-0.214954 0.166093 -0.17368
-0.170629 0.119165 -0.135759
-0.111542 0.0726781 -0.0847322
-0.0440844 0.0448385 -0.0345847
0.0230552 0.0515389 -0.00495939
0.0845866 0.0783669 0.00488387
0.138247 0.103537 0.0070664
0.18566 0.116 0.014223
0.227703 0.111537 0.0402043
0.265249 0.0988639 0.087582
0.299306 0.0905676 0.145481
0.329507 0.0926481 0.190971
0.355092 0.103474 0.207433
0.375554 0.110544 0.182819
0.388284 0.100201 0.118207
0.390478 0.0743114 0.0317969
0.378343 0.0399906 -0.0493864
0.351896 0.0100163 -0.10312
0.313616 -0.00645506 -0.119335
-0.2567 0.184339 -0.122255
-0.2626 0.181684 -0.124796
-0.245712 0.137563 -0.09474
-0.206771 0.070785 -0.0423181
-0.150969 0.00905498 0.0149747
-0.0848697 -0.0269907 0.0599691
-0.0172495 -0.0197707 0.0752731
0.0460173 0.0142414 0.065801
0.101806 0.0489434 0.0486508
0.150317 0.0684061 0.0407151
0.191174 0.065712 0.0586157
0.224226 0.0495176 0.104507
0.250606 0.0344937 0.165424
0.270935 0.0294808 0.216343
0.286261 0.0358358 0.238229
0.298062 0.0424901 0.21886
0.305603 0.0361147 0.159437
0.307426 0.0177004 0.0765688
0.3001 -0.00644071 -0.00334104
0.282729 -0.0252145 -0.0594764
0.255608 -0.0306086 -0.0825673
-0.257461 0.178657 -0.0650729
-0.272645 0.157862 -0.0440227
-0.268632 0.0923991 0.00795142
-0.244497 0.00612361 0.0763109
-0.203801 -0.0683862 0.138138
-0.152975 -0.10983 0.172262
-0.0995005 -0.0998434 0.165288
-0.0486582 -0.0570262 0.127379
-0.00299575 -0.0113942 0.0815168
0.0368491 0.0164568 0.0498091
0.0699976 0.0172052 0.0524385
0.0957856 -0.000610698 0.0911091
0.115466 -0.0206065 0.150422
0.130389 -0.0315728 0.203441
0.143276 -0.0294956 0.228403
0.156831 -0.0241 0.212283
0.171174 -0.0280765 0.156712
0.184789 -0.0406065 0.0791961
0.194073 -0.0564822 0.00458409
0.195965 -0.0654725 -0.0484865
0.187676 -0.0605959 -0.0712636
-0.235905 0.161124 -0.0246836
-0.259232 0.120482 0.0174419
-0.269564 0.0342056 0.0900815
-0.264718 -0.0685799 0.173754
-0.246339 -0.150752 0.240449
-0.220263 -0.192093 0.265377
-0.191495 -0.17489 0.237683
-0.163734 -0.120303 0.172473
-0.137594 -0.0620917 0.0985776
-0.113638 -0.0252549 0.0430876
-0.0925532 -0.0210282 0.0301165
-0.0751621 -0.040795 0.0612863
-0.0603826 -0.0664152 0.119041
-0.0467776 -0.0842663 0.174921
-0.0306347 -0.087688 0.204254
-0.00887177 -0.0848605 0.192617
0.0187887 -0.0876675 0.141857
0.050023 -0.0952519 0.0708775
0.080901 -0.104281 0.00291271
0.10582 -0.10506 -0.0454066
0.118778 -0.0910913 -0.0658327
-0.189641 0.134459 -0.0229952
-0.21594 0.0754841 0.0300836
-0.236131 -0.0285224 0.116968
-0.24799 -0.142741 0.215177
-0.251706 -0.226037 0.290129
-0.252016 -0.260614 0.312542
-0.251016 -0.231319 0.272723
-0.250055 -0.16202 0.189358
-0.246933 -0.0902747 0.0962044
-0.241119 -0.0451722 0.0244463
-0.232736 -0.0393109 0.00168507
-0.222786 -0.0635851 0.0298496
-0.211035 -0.0977151 0.0899009
-0.196885 -0.125189 0.152296
-0.1767 -0.136457 0.189774
-0.147635 -0.137852 0.186329
-0.109422 -0.140378 0.143519
-0.0645916 -0.143451 0.0813402
-0.016845 -0.146574 0.0205255
0.0263098 -0.140054 -0.0251249
0.0566704 -0.11786 -0.0470898
-0.116397 0.10403 -0.075295
-0.136505 0.030392 -0.0273382
-0.15631 -0.0842897 0.0631875
-0.175756 -0.202931 0.171791
-0.194016 -0.2823 0.26006
-0.214209 -0.305435 0.292735
-0.235292 -0.260816 0.255796
-0.256654 -0.176251 0.170087
-0.273114 -0.0921873 0.0732337
-0.282118 -0.0412029 -0.0011511
-0.283322 -0.0368339 -0.0226576
-0.278159 -0.0691611 0.0115668
-0.267994 -0.115479 0.0820361
-0.253963 -0.156036 0.158647
-0.233821 -0.178078 0.211722
-0.205566 -0.185418 0.223781
-0.167966 -0.188263 0.195468
-0.122763 -0.186956 0.144339
-0.072505 -0.183433 0.087329
-0.0245303 -0.168794 0.0372361
0.0125061 -0.139116 0.00399078
-0.0233066 0.0732228 -0.177335
-0.0265315 -0.00922077 -0.15081
-0.0331651 -0.127281 -0.0688296
-0.0467995 -0.242981 0.0438225
-0.0668247 -0.314005 0.146958
-0.0944514 -0.323285 0.202519
-0.126199 -0.263317 0.185609
-0.159521 -0.164986 0.115906
-0.187261 -0.0717102 0.0339557
-0.20424 -0.018085 -0.0265906
-0.209956 -0.0180059 -0.0338038
-0.206654 -0.0606538 0.0165525
-0.197854 -0.121062 0.105768
-0.186951 -0.176331 0.203935
-0.17423 -0.210579 0.279385
-0.158195 -0.224941 0.314162
-0.136106 -0.22874 0.306506
-0.107584 -0.223495 0.266624
-0.073044 -0.212757 0.208708
-0.0375198 -0.190127 0.146274
-0.00766355 -0.153596 0.0904669
0.0646624 0.045411 -0.286099
0.0832957 -0.0391179 -0.28626
0.096874 -0.152951 -0.220704
0.0974062 -0.258843 -0.114918
0.0842064 -0.317822 -0.00405665
0.0594722 -0.313207 0.0744348
0.0284508 -0.241016 0.0858406
-0.00515334 -0.133688 0.0444961
-0.0336506 -0.0362217 -0.0103562
-0.0497417 0.0164185 -0.0460682
-0.0534822 0.01067 -0.0322633
-0.0483375 -0.0420346 0.0365284
-0.0401916 -0.115314 0.143716
-0.034636 -0.18396 0.260819
-0.0346716 -0.229731 0.356999
-0.0389942 -0.251191 0.414371
-0.0426725 -0.256519 0.427453
-0.0421455 -0.248067 0.397807
-0.0353345 -0.231032 0.337439
-0.0235236 -0.201804 0.262846
-0.00999123 -0.16025 0.184211
0.13718 0.022833 -0.367983
0.175861 -0.0563189 -0.395024
0.208134 -0.158564 -0.350472
0.223132 -0.249894 -0.256165
0.220491 -0.296091 -0.14727
0.204055 -0.280342 -0.0542473
0.180121 -0.201666 -0.0183936
0.153948 -0.092501 -0.0296653
0.132708 0.00320256 -0.0545148
0.124144 0.0515644 -0.0630983
0.126893 0.0398538 -0.0282941
0.136001 -0.0204186 0.055679
0.143554 -0.10271 0.174747
0.142449 -0.180897 0.303255
0.127995 -0.23557 0.413184
0.101751 -0.263145 0.486934
0.0708332 -0.270318 0.517079
0.0417792 -0.26032 0.49686
0.0189659 -0.238662 0.438261
0.00453684 -0.204483 0.355219
-0.0012667 -0.159656 0.258602
0.177503 0.00653288 -0.392307
0.228108 -0.0615282 -0.437727
0.27069 -0.147018 -0.413397
0.29575 -0.221167 -0.336122
0.302574 -0.25475 -0.236388
0.295666 -0.232112 -0.142181
0.281884 -0.15413 -0.09384
0.266485 -0.0513142 -0.0842104
0.256023 0.0364086 -0.0857361
0.257845 0.0777525 -0.0747259
0.268616 0.0613416 -0.0276733
0.282085 -0.00198403 0.0606388
0.289161 -0.0871523 0.178747
0.282245 -0.168917 0.305473
0.255844 -0.228091 0.416102
0.212432 -0.259765 0.495366
0.160066 -0.268915 0.535274
0.10761 -0.258868 0.524906
0.0618703 -0.235216 0.472269
0.0275601 -0.198767 0.389468
0.00645109 -0.153093 0.287106
0.17859 -0.00496301 -0.349455
0.227306 -0.0583992 -0.398228
0.268129 -0.125157 -0.389209
0.294654 -0.181041 -0.332448
0.30635 -0.203541 -0.251216
0.306544 -0.178909 -0.171144
0.301556 -0.108373 -0.124311
0.295505 -0.0186435 -0.105939
0.294916 0.0559522 -0.0953641
0.304748 0.0886095 -0.0760054
0.321273 0.0696512 -0.0290104
0.337521 0.00854217 0.0496092
0.344646 -0.072607 0.151164
0.335419 -0.150886 0.26002
0.304986 -0.208737 0.356352
0.255379 -0.240737 0.428104
0.195275 -0.250497 0.468471
0.134017 -0.240792 0.466357
0.079291 -0.217113 0.424915
0.0371048 -0.181814 0.353896
0.00988444 -0.138396 0.262655
0.236835 0.256502 0.165936
0.266936 0.30231 0.241292
0.284482 0.304316 0.311583
0.290257 0.258447 0.367994
0.28835 0.168873 0.401926
0.28603 0.0491478 0.410935
0.288689 -0.0740391 0.39476
0.30171 -0.180679 0.350769
0.323973 -0.253048 0.281946
0.349921 -0.275957 0.199707
0.375733 -0.244426 0.117343
0.397567 -0.16285 0.0514304
0.410447 -0.0477842 0.0160195
0.410385 0.0730124 0.0167141
0.397446 0.168526 0.0472663
0.374113 0.210568 0.094735
0.342618 0.190135 0.142837
0.306209 0.123643 0.171731
0.267127 0.0357041 0.178299
0.228104 -0.0457186 0.1617
0.192223 -0.0963117 0.126323
0.275617 0.267859 0.211888
0.320196 0.322547 0.302931
0.352865 0.330277 0.38581
0.371851 0.285367 0.449739
0.37908 0.192246 0.485151
0.381314 0.0664072 0.48912
0.383465 -0.0631726 0.463233
0.391759 -0.175618 0.405304
0.4061 -0.252163 0.318941
0.422357 -0.275261 0.218521
0.438806 -0.239053 0.119937
0.454767 -0.147768 0.0420904
0.466595 -0.0194587 0.000242464
0.470925 0.114606 -0.00119515
0.467277 0.219578 0.0300751
0.456459 0.263618 0.0785621
0.437298 0.235976 0.125354
0.409576 0.155642 0.150699
0.372623 0.0516812 0.154194
0.328526 -0.0435592 0.136713
0.280447 -0.101575 0.103011
0.277293 0.260739 0.237901
0.330176 0.319701 0.333586
0.374178 0.332633 0.418002
0.404679 0.292489 0.47954
0.42116 0.204842 0.508591
0.428076 0.085064 0.502455
0.428428 -0.0382293 0.465259
0.429273 -0.145101 0.395761
0.431964 -0.217712 0.298597
0.434004 -0.238224 0.189827
0.437655 -0.200144 0.0861633
0.445838 -0.106735 0.00608118
0.457414 0.0243909 -0.0368241
0.469508 0.161297 -0.0410941
0.481917 0.267455 -0.0157863
0.491974 0.309669 0.0218642
0.494469 0.275791 0.0538268
0.484465 0.186094 0.0666509
0.457959 0.0717628 0.0638171
0.415578 -0.032133 0.0493664
0.360568 -0.0954386 0.0289331
0.242 0.2403 0.232557
0.294925 0.298934 0.321337
0.343115 0.315246 0.396765
0.379543 0.282038 0.448201
0.401577 0.206656 0.465981
0.410935 0.102976 0.448548
0.409101 -0.00183543 0.401987
0.402452 -0.0921509 0.326024
0.393389 -0.153015 0.226061
0.382485 -0.168167 0.118739
0.37531 -0.131075 0.0201515
0.378058 -0.0433339 -0.0536434
0.392036 0.0798685 -0.0927833
0.41516 0.208775 -0.0994743
0.446605 0.308166 -0.0849566
0.481079 0.345292 -0.0665604
0.509374 0.306883 -0.0592374
0.521748 0.213451 -0.064157
0.511409 0.0952819 -0.0756148
0.476846 -0.0119753 -0.084145
0.421023 -0.0785389 -0.0830455
0.173797 0.21389 0.193165
0.218547 0.267472 0.264727
0.26354 0.284171 0.32341
0.300069 0.257838 0.36032
0.324089 0.198064 0.367111
0.33479 0.11712 0.34249
0.332088 0.0393132 0.292691
0.320752 -0.0255275 0.21811
0.304441 -0.068212 0.12469
0.286214 -0.0756034 0.0283919
0.273829 -0.0418545 -0.0561268
0.275653 0.0336032 -0.116365
0.294859 0.139705 -0.147387
0.329988 0.251401 -0.15549
0.379742 0.337574 -0.153577
0.436984 0.367184 -0.159019
0.489448 0.326463 -0.181284
0.523701 0.234958 -0.207886
0.530942 0.119017 -0.227824
0.507488 0.0134183 -0.22984
0.456162 -0.0544691 -0.204742
0.0842726 0.189301 0.121477
0.116599 0.235141 0.166924
0.153742 0.249252 0.204308
0.186829 0.227602 0.227117
0.210843 0.183194 0.228071
0.223001 0.12659 0.204893
0.221944 0.0790732 0.161228
0.210697 0.0437376 0.0977879
0.193243 0.0225169 0.0211268
0.174573 0.024187 -0.0546219
0.163539 0.0532445 -0.116437
0.169432 0.112586 -0.155849
0.19642 0.196274 -0.173351
0.243217 0.2855 -0.179895
0.307948 0.354823 -0.188762
0.382174 0.376199 -0.216829
0.452209 0.335319 -0.268405
0.50252 0.249597 -0.317879
0.523385 0.140513 -0.348854
0.509815 0.040554 -0.346665
0.46488 -0.0264718 -0.301644