# vtk DataFile Version 2.0
Func
ASCII
DATASET RECTILINEAR_GRID
DIMENSIONS 21 21 21
X_COORDINATES 21 double
-4.7619
-4.28571
-3.80952
-3.33333
-2.85714
-2.38095
-1.90476
-1.42857
-0.952381
-0.47619
0
0.47619
0.952381
1.42857
1.90476
2.38095
2.85714
3.33333
3.80952
4.28571
4.7619
Y_COORDINATES 21 double
-4.7619
-4.28571
-3.80952
-3.33333
-2.85714
-2.38095
-1.90476
-1.42857
-0.952381
-0.47619
0
0.47619
0.952381
1.42857
1.90476
2.38095
2.85714
3.33333
3.80952
4.28571
4.7619
Z_COORDINATES 21 double
-4.7619
-4.28571
-3.80952
-3.33333
-2.85714
-2.38095
-1.90476
-1.42857
-0.952381
-0.47619
0
0.47619
0.952381
1.42857
1.90476
2.38095
2.85714
3.33333
3.80952
4.28571
4.7619
POINT_DATA 9261
SCALARS data double 3
LOOKUP_TABLE default
-0.0418147 -0.126341 0.0297849
-0.0515398 -0.18731 -8.01945e-05
-0.0512983 -0.233558 -0.0383607
-0.0460105 -0.248142 -0.0718035
-0.0377756 -0.218716 -0.0884796
-0.0291995 -0.144654 -0.0800784
-0.0224701 -0.045185 -0.0485791
-0.0177122 0.0543498 -0.00693915
-0.013607 0.127925 0.0267623
-0.00848989 0.158109 0.0425498
8.67095e-05 0.145932 0.0402548
0.0129937 0.105929 0.028368
0.0295235 0.0588776 0.017864
0.047602 0.0225177 0.0158613
0.0640886 0.0060392 0.0236901
0.075934 0.00833297 0.0361959
0.0798818 0.0204699 0.0442171
0.0741842 0.0312802 0.043667
0.0607105 0.0353339 0.034863
0.0433654 0.0319301 0.0225273
0.0254285 0.0247035 0.0125275
-0.0180599 -0.118258 0.0272191
-0.0290838 -0.182421 -0.0121124
-0.0336237 -0.232365 -0.0612822
-0.0336751 -0.249955 -0.102489
-0.0293579 -0.221759 -0.1217
-0.0220199 -0.147592 -0.111115
-0.0125149 -0.0471752 -0.0737526
-0.000469698 0.0526323 -0.0250113
0.0155259 0.12481 0.0144598
0.0350751 0.151688 0.032811
0.0586271 0.135564 0.0315213
0.0843781 0.0933701 0.0218388
0.109105 0.0481749 0.0169641
0.129341 0.0187807 0.0245069
0.141967 0.0135047 0.0443189
0.14488 0.0287396 0.0677219
0.136098 0.0519697 0.0825284
0.11565 0.0696942 0.0829855
0.0875502 0.0756598 0.0694367
0.0576734 0.0695885 0.0489922
0.0310739 0.0558042 0.030282
0.0150319 -0.0947821 0.013108
0.0053046 -0.153573 -0.0354513
-0.00289712 -0.2017 -0.0924842
-0.00853864 -0.22125 -0.137656
-0.0097794 -0.199378 -0.156461
-0.00493401 -0.135743 -0.141801
0.00731341 -0.0477979 -0.0996999
0.0282073 0.038919 -0.0469414
0.0580103 0.0993708 -0.00531229
0.0941117 0.118466 0.0130005
0.133716 0.100005 0.012012
0.171656 0.0620695 0.00598999
0.201928 0.0277331 0.00996552
0.219801 0.0144295 0.0312166
0.222744 0.0273811 0.0667066
0.210756 0.0593656 0.104889
0.18411 0.0941962 0.129427
0.145402 0.117171 0.132305
0.101176 0.12234 0.114577
0.0590078 0.110663 0.0851895
0.0252008 0.0876588 0.0553902
0.0462002 -0.0552248 -0.00827768
0.0379318 -0.100802 -0.0636605
0.0268066 -0.142138 -0.12467
0.0158633 -0.163714 -0.170148
0.00903921 -0.153566 -0.186632
0.0110178 -0.110081 -0.167071
0.0249109 -0.0462148 -0.121689
0.0530911 0.0167258 -0.0683276
0.0942726 0.0582734 -0.0286995
0.14364 0.0676116 -0.0134314
0.195336 0.049809 -0.0154307
0.241079 0.0225537 -0.0172245
0.272545 0.00660381 -0.00222821
0.28415 0.015686 0.0356495
0.274188 0.0502429 0.0897997
0.245217 0.0984496 0.145107
0.200271 0.141556 0.181628
0.14482 0.165142 0.187802
0.0875511 0.165334 0.166093
0.0374077 0.145252 0.127676
0.00119143 0.112086 0.0863503
0.0653343 -0.00359564 -0.0293383
0.0572219 -0.0299579 -0.0861586
0.0428283 -0.0609543 -0.145099
0.0264598 -0.0846434 -0.186635
0.0129976 -0.0904301 -0.197977
0.0101102 -0.0740745 -0.173712
0.0219526 -0.0420735 -0.128187
0.0516261 -0.00960882 -0.0797724
0.0969571 0.00938304 -0.0479112
0.151616 0.00929222 -0.0401165
0.207633 -0.00415406 -0.0458233
0.254597 -0.015236 -0.0446551
0.282837 -0.00757486 -0.0191665
0.286404 0.0268778 0.0348021
0.264323 0.0826313 0.106869
0.221219 0.143013 0.178156
0.162831 0.187894 0.225472
0.0975599 0.205227 0.23456
0.0354315 0.194932 0.20934
-0.0139281 0.163342 0.163752
-0.0448276 0.120239 0.113495
0.0661957 0.0533984 -0.0422507
0.0549861 0.0481494 -0.0932772
0.0354614 0.0286262 -0.142527
0.0121817 0.00256658 -0.174169
-0.00924854 -0.0206277 -0.178867
-0.0201098 -0.0340447 -0.154096
-0.0156745 -0.0362809 -0.116531
0.00776506 -0.0354935 -0.0825565
0.047926 -0.0383423 -0.0667656
0.0978191 -0.0451611 -0.0719436
0.148588 -0.0504046 -0.0838737
0.189091 -0.0417418 -0.0807132
0.209716 -0.00867001 -0.045948
0.204908 0.0500735 0.0213756
0.174581 0.122968 0.107366
0.124915 0.188896 0.190106
0.0634807 0.228216 0.244752
0.000383024 0.232528 0.255864
-0.0540442 0.206774 0.229394
-0.0910088 0.161364 0.180722
-0.107434 0.109154 0.126516
0.0459231 0.107628 -0.0384794
0.0279984 0.121585 -0.0755296
0.000965606 0.112421 -0.108429
-0.0315298 0.0837159 -0.126181
-0.0636018 0.0448013 -0.124647
-0.0866376 0.00447769 -0.104899
-0.0954145 -0.0277919 -0.0828643
-0.0854192 -0.0534411 -0.071261
-0.0586683 -0.0728176 -0.0786151
-0.0217449 -0.0818522 -0.101869
0.0168418 -0.0760553 -0.123561
0.0466516 -0.0472573 -0.121856
0.0593118 0.00876732 -0.082699
0.0502016 0.0866145 -0.00910632
0.0200527 0.16955 0.0824108
-0.0243467 0.233394 0.167715
-0.0750143 0.260048 0.222273
-0.121813 0.245979 0.232436
-0.155678 0.201023 0.206377
-0.170061 0.140344 0.16013
-0.165671 0.0807764 0.110545
0.00740587 0.151819 -0.0238366
-0.0183699 0.179926 -0.0415649
-0.0529869 0.17817 -0.0533448
-0.0942391 0.147204 -0.0541061
-0.136774 0.0968471 -0.0455973
-0.173307 0.0370784 -0.0328066
-0.198159 -0.0156053 -0.0289846
-0.206624 -0.057826 -0.0426263
-0.199129 -0.085308 -0.0759661
-0.180864 -0.0913036 -0.1201
-0.158597 -0.0731179 -0.155135
-0.140624 -0.0268465 -0.160568
-0.133114 0.046143 -0.125716
-0.139495 0.134995 -0.0573612
-0.158649 0.21945 0.026991
-0.184444 0.274015 0.102487
-0.21045 0.283158 0.147185
-0.228736 0.248067 0.152445
-0.2329 0.182919 0.12851
-0.21986 0.107372 0.0910728
-0.194367 0.0423664 0.0561704
-0.0401132 0.180234 -0.0090723
-0.071993 0.216089 -0.00654628
-0.111548 0.217932 0.00443949
-0.158545 0.185597 0.022884
-0.208784 0.130006 0.0413799
-0.257335 0.0616965 0.0505911
-0.298597 0.00158132 0.0397625
-0.327226 -0.0444592 0.00417104
-0.341083 -0.0702547 -0.0527209
-0.342801 -0.0685792 -0.11728
-0.336273 -0.03892 -0.168225
-0.326696 0.019106 -0.187235
-0.317879 0.100251 -0.167062
-0.312454 0.190396 -0.11707
-0.309803 0.267995 -0.0538021
-0.306011 0.308138 -0.000788605
-0.297787 0.298069 0.0247101
-0.281278 0.243122 0.0215634
-0.253648 0.1599 0.000948724
-0.215682 0.072198 -0.0223394
-0.175402 0.00425829 -0.0338828
-0.0863693 0.191353 -0.00694251
-0.120223 0.228335 0.0126551
-0.159713 0.230906 0.0454828
-0.207179 0.198954 0.0849945
-0.260356 0.145173 0.118385
-0.316988 0.079857 0.131441
-0.37173 0.0254175 0.114452
-0.418529 -0.0123028 0.0653677
-0.451997 -0.0279914 -0.00774738
-0.471135 -0.0159852 -0.0881525
-0.476278 0.0220877 -0.154439
-0.469166 0.0843533 -0.191031
-0.45166 0.163909 -0.193682
-0.426368 0.246022 -0.17277
-0.39428 0.310198 -0.141994
-0.355073 0.333972 -0.121349
-0.309715 0.307065 -0.121708
-0.259477 0.237608 -0.135513
-0.205166 0.142202 -0.152278
-0.150931 0.0472564 -0.15888
-0.106409 -0.0213901 -0.143097
-0.124134 0.186886 -0.0279927
-0.15396 0.21982 0.00157619
-0.186465 0.220853 0.0519958
-0.227131 0.191451 0.112142
-0.276405 0.146019 0.164986
-0.334598 0.0940964 0.191687
-0.396922 0.0566942 0.180772
-0.456772 0.03729 0.131105
-0.505379 0.0378306 0.0536606
-0.537339 0.0607432 -0.0338224
-0.549238 0.102676 -0.11106
-0.539495 0.161096 -0.165234
-0.508662 0.229881 -0.194123
-0.46006 0.296329 -0.207334
-0.397245 0.343057 -0.214229
-0.324288 0.351385 -0.229439
-0.246641 0.312803 -0.256823
-0.170581 0.236525 -0.281154
-0.10001 0.136832 -0.294111
-0.0412196 0.0407357 -0.284886
-0.0037866 -0.0268246 -0.243978
-0.148838 0.172046 -0.0724317
-0.168847 0.197739 -0.0414523
-0.187942 0.196272 0.0199651
-0.214923 0.17173 0.0973429
-0.253468 0.139653 0.171132
-0.30604 0.108734 0.218867
-0.368805 0.0961788 0.22473
-0.435014 0.101304 0.187046
-0.493047 0.120828 0.118009
-0.532929 0.152928 0.0344277
-0.547862 0.193278 -0.0456235
-0.533513 0.240387 -0.111924
-0.489709 0.291141 -0.163346
-0.420873 0.33705 -0.207403
-0.333602 0.365259 -0.248354
-0.236269 0.361377 -0.294443
-0.138002 0.317679 -0.343153
-0.0487929 0.242692 -0.374772
0.0254343 0.146737 -0.384062
0.0778213 0.0552959 -0.363111
0.100376 -0.0100037 -0.305617
-0.158305 0.153461 -0.127439
-0.16513 0.171524 -0.101897
-0.167411 0.168117 -0.0369764
-0.176751 0.150435 0.0506894
-0.199927 0.134194 0.140879
-0.240916 0.127443 0.209361
-0.297202 0.142204 0.235279
-0.362497 0.172798 0.216096
-0.42352 0.209989 0.164242
-0.466522 0.247611 0.0945161
-0.482337 0.281244 0.0219332
-0.464856 0.311762 -0.0459134
-0.413577 0.340496 -0.108623
-0.333896 0.36439 -0.171275
-0.235183 0.375693 -0.233373
-0.128974 0.364068 -0.2969
-0.026349 0.321644 -0.35474
0.0612336 0.254783 -0.387309
0.127213 0.169175 -0.39259
0.165719 0.086959 -0.366005
0.171322 0.0247004 -0.304728
-0.151442 0.136476 -0.169835
-0.145113 0.148613 -0.152864
-0.131681 0.14487 -0.0918638
-0.123841 0.135393 -0.00419322
-0.130426 0.135079 0.0907515
-0.156164 0.151624 0.169022
-0.200048 0.191505 0.207118
-0.256976 0.24413 0.202886
-0.313755 0.294624 0.169022
-0.354813 0.333174 0.118372
-0.370265 0.356103 0.062534
-0.353526 0.367455 0.00621987
-0.303967 0.373538 -0.0512421
-0.227264 0.376866 -0.11333
-0.134416 0.374533 -0.176416
-0.0381393 0.35946 -0.237643
0.0509167 0.322921 -0.287915
0.122529 0.268175 -0.31277
0.170974 0.196652 -0.312664
0.192506 0.125962 -0.286388
0.18475 0.0672597 -0.234673
-0.130338 0.122126 -0.180056
-0.114807 0.130156 -0.169646
-0.0912539 0.127848 -0.11773
-0.0712737 0.1277 -0.041729
-0.0640854 0.142881 0.0415766
-0.0742395 0.180648 0.111195
-0.102056 0.24212 0.144998
-0.14416 0.312295 0.14365
-0.189243 0.371578 0.121217
-0.222537 0.407573 0.0893721
-0.235353 0.418029 0.0563125
-0.222094 0.410508 0.0232846
-0.182285 0.396068 -0.0125461
-0.121105 0.382001 -0.054626
-0.049608 0.369276 -0.0983587
0.0205227 0.352876 -0.138006
0.081376 0.322756 -0.164946
0.12637 0.279061 -0.172887
0.151911 0.220437 -0.164388
0.156898 0.160055 -0.142181
0.141406 0.104768 -0.110278
-0.0980444 0.107163 -0.141896
-0.0801961 0.112824 -0.131658
-0.0554056 0.112756 -0.0908504
-0.031861 0.122522 -0.0369979
-0.016738 0.152726 0.0156778
-0.0136679 0.20967 0.0522471
-0.0236691 0.28954 0.0583018
-0.0454689 0.373558 0.040459
-0.0712916 0.438715 0.0155478
-0.0900613 0.471096 -0.00435215
-0.0961604 0.47018 -0.0139979
-0.08634 0.44671 -0.0162235
-0.0606676 0.415591 -0.017485
-0.0231579 0.387551 -0.02316
0.0167134 0.366189 -0.030363
0.0500935 0.347278 -0.0325162
0.0736242 0.320121 -0.0233229
0.0860435 0.282215 -0.00612909
0.0868637 0.231572 0.0139468
0.0775625 0.178146 0.0309638
0.0596045 0.125582 0.0391129
-0.0592511 0.09042 -0.0577939
-0.0455851 0.0943847 -0.040269
-0.0278803 0.0974775 -0.0106546
-0.00898055 0.116571 0.0139764
0.00765721 0.160678 0.0217599
0.0203152 0.233829 0.00468169
0.0277205 0.328434 -0.0377606
0.0292639 0.42273 -0.0902966
0.0280754 0.491689 -0.132355
0.0292862 0.520899 -0.150036
0.0340521 0.511508 -0.140378
0.0423465 0.476659 -0.110583
0.0532604 0.433746 -0.07177
0.0644076 0.395344 -0.0328089
0.0692512 0.366207 0.00523092
0.0629707 0.34245 0.0481101
0.0477516 0.313444 0.0986538
0.0277247 0.274876 0.144266
0.00560032 0.226208 0.177778
-0.0150215 0.175122 0.191284
-0.0321883 0.125096 0.177887
-0.0193323 0.0706347 0.0442389
-0.0145061 0.073258 0.0709312
-0.0100888 0.0798458 0.0896552
-0.00252291 0.107102 0.0860414
0.0100316 0.16252 0.0493097
0.0272469 0.248074 -0.0230336
0.0486843 0.353042 -0.116926
0.0721496 0.454177 -0.208212
0.0960708 0.525774 -0.27293
0.118713 0.553724 -0.295988
0.136523 0.540343 -0.275472
0.146149 0.499899 -0.22182
0.145813 0.4506 -0.150018
0.134889 0.405273 -0.0725031
0.110456 0.36881 0.00552373
0.0716343 0.3374 0.087548
0.0253587 0.3014 0.172298
-0.0200598 0.256069 0.241004
-0.0591849 0.204022 0.285669
-0.0874428 0.151511 0.298271
-0.102922 0.103893 0.271252
0.0108133 0.047591 0.134746
0.00646831 0.047954 0.171401
-0.00225772 0.0569311 0.182828
-0.0062487 0.0902368 0.156126
-0.000126384 0.154192 0.083917
0.0181322 0.247959 -0.032896
0.0487213 0.359082 -0.168116
0.0882894 0.463751 -0.291791
0.131933 0.53696 -0.376702
0.171982 0.565335 -0.407267
0.201036 0.551847 -0.382398
0.213195 0.510736 -0.314792
0.206072 0.459661 -0.222244
0.180648 0.410534 -0.119769
0.137364 0.367756 -0.0159482
0.0790218 0.327476 0.0896942
0.0153814 0.281633 0.193511
-0.0433954 0.2266 0.275068
-0.090645 0.168471 0.326577
-0.122044 0.113387 0.339102
-0.136039 0.068881 0.306382
0.0269721 0.0229066 0.191119
0.0145029 0.0203822 0.234946
-0.00455989 0.0303862 0.243392
-0.0188648 0.0672506 0.204033
-0.0199913 0.1355 0.111726
-0.00399543 0.232243 -0.028235
0.0301014 0.344175 -0.183775
0.0782088 0.44836 -0.323027
0.133385 0.521589 -0.418434
0.184422 0.551497 -0.454283
0.221566 0.541109 -0.430509
0.237519 0.503526 -0.360694
0.229578 0.454698 -0.263535
0.199548 0.404887 -0.154598
0.150666 0.357639 -0.0444763
0.0881848 0.30944 0.0653335
0.0219044 0.254304 0.170788
-0.0383687 0.190374 0.254005
-0.0856517 0.1268 0.306081
-0.116384 0.0705049 0.318546
-0.130074 0.0302111 0.287433
0.0281559 -0.000372283 0.199638
0.0119004 -0.00480667 0.243759
-0.0112993 0.00611349 0.251477
-0.0303483 0.0436881 0.211211
-0.0365463 0.111267 0.119027
-0.0246337 0.204769 -0.0165302
0.00648844 0.311034 -0.164767
0.0534992 0.409273 -0.296378
0.108483 0.479234 -0.387151
0.160132 0.510185 -0.422565
0.19876 0.504562 -0.403386
0.217156 0.473463 -0.342217
0.212429 0.430281 -0.256165
0.186732 0.38355 -0.159123
0.144348 0.335571 -0.0617787
0.0905434 0.283343 0.0341657
0.0342131 0.22343 0.125041
-0.0169458 0.155869 0.197669
-0.0567744 0.0912069 0.242983
-0.0830785 0.0365936 0.254311
-0.0962355 0.00130235 0.22933
-0.0111277 -0.147098 0.0402224
-0.0164173 -0.225342 0.00554463
-0.0130541 -0.287009 -0.040671
-0.00647365 -0.309727 -0.081895
0.0002196 -0.276511 -0.104407
0.00431013 -0.185745 -0.0993175
0.00404505 -0.0605297 -0.0692969
-0.000194503 0.0672301 -0.0282466
-0.00589035 0.163789 0.00428186
-0.0102955 0.205584 0.0177395
-0.00971857 0.192148 0.0126055
-0.0030173 0.140937 -0.00121669
0.00897136 0.0781827 -0.0115939
0.0240459 0.0270615 -0.0112291
0.0385251 0.000717077 0.000566395
0.0492441 -0.000863382 0.017137
0.0523288 0.0120534 0.0274869
0.0457801 0.0254693 0.0282157
0.0314233 0.0326415 0.0214396
0.0139677 0.0318476 0.0120444
-0.00258154 0.0263228 0.00593111
0.0353028 -0.135767 0.0296902
0.0297762 -0.218421 -0.0185959
0.027348 -0.285474 -0.0788934
0.0257615 -0.31216 -0.129046
0.0248099 -0.279755 -0.152677
0.0240634 -0.187168 -0.142076
0.0242218 -0.0582304 -0.102408
0.0267103 0.0725008 -0.0510237
0.0342305 0.169194 -0.0107516
0.0468162 0.207653 0.00532076
0.065327 0.188704 9.23874e-06
0.0872947 0.133084 -0.0129396
0.108566 0.070538 -0.0181408
0.125229 0.0261744 -0.00722697
0.133886 0.0125713 0.0188949
0.132645 0.0265048 0.0492123
0.119298 0.0531193 0.068753
0.0941752 0.075087 0.0721198
0.0616404 0.0843424 0.0613465
0.0288032 0.0796367 0.0437843
0.00152027 0.0652911 0.0283414
0.0911841 -0.105877 0.00209692
0.0875792 -0.182184 -0.0598758
0.0799953 -0.247608 -0.130552
0.0696729 -0.27687 -0.184327
0.0593527 -0.251506 -0.204197
0.0527888 -0.170011 -0.184242
0.054153 -0.0535121 -0.134413
0.0662537 0.0642187 -0.0747145
0.090495 0.148743 -0.0298742
0.123835 0.178437 -0.0137218
0.16277 0.155923 -0.0200692
0.200436 0.103827 -0.0308633
0.228985 0.0527551 -0.0276918
0.24295 0.0268641 -0.00186648
0.2398 0.0353829 0.0425923
0.220181 0.0703711 0.0911816
0.184757 0.111991 0.123618
0.137018 0.14079 0.131427
0.0844359 0.14857 0.116799
0.0360775 0.135661 0.0891984
-0.00110187 0.108243 0.060391
0.138402 -0.0575377 -0.033583
0.136258 -0.117553 -0.105886
0.124162 -0.174775 -0.18162
0.10576 -0.206378 -0.234154
0.0868069 -0.194753 -0.247691
0.0751241 -0.136478 -0.216984
0.077372 -0.0472088 -0.158364
0.0980433 0.0437818 -0.0939769
0.136812 0.106805 -0.0492914
0.187578 0.125124 -0.0363551
0.242784 0.103049 -0.045162
0.291626 0.0632458 -0.0531678
0.323249 0.0342587 -0.0392427
0.33098 0.036267 0.00460829
0.313495 0.0726714 0.0706097
0.27438 0.129435 0.14001
0.217532 0.182998 0.187839
0.149804 0.213396 0.200887
0.0813141 0.214269 0.18213
0.0225655 0.188801 0.143516
-0.0191077 0.145912 0.0999022
0.161849 0.0037705 -0.0645773
0.159086 -0.0326654 -0.139285
0.142097 -0.0771448 -0.211822
0.116243 -0.111188 -0.257737
0.0889223 -0.11863 -0.262312
0.0712434 -0.092766 -0.222206
0.0711788 -0.0410948 -0.159546
0.094118 0.013971 -0.0980307
0.138897 0.0502957 -0.0608012
0.197304 0.0574697 -0.0562529
0.259212 0.0409242 -0.0702849
0.311362 0.0214156 -0.0764731
0.341353 0.0227192 -0.0520202
0.341854 0.0583915 0.00929271
0.312442 0.124068 0.0956811
0.258796 0.199314 0.184107
0.187825 0.258041 0.245431
0.109509 0.282236 0.262648
0.0355973 0.269254 0.239222
-0.0227619 0.226727 0.190789
-0.0595419 0.167465 0.134604
0.153951 0.0703996 -0.078502
0.145988 0.0595395 -0.145515
0.121894 0.0287851 -0.205374
0.0877043 -0.00847109 -0.23803
0.0517078 -0.0375374 -0.232995
0.0259837 -0.0481054 -0.190315
0.0187538 -0.0378081 -0.135074
0.0357431 -0.0209762 -0.088987
0.075742 -0.0110951 -0.0697329
0.129666 -0.0119429 -0.0803958
0.186528 -0.0178527 -0.102594
0.232538 -0.0116941 -0.107911
0.255724 0.0236028 -0.0741781
0.249052 0.093468 0.00145945
0.213107 0.185315 0.103445
0.154799 0.272537 0.205424
0.0829022 0.328696 0.276043
0.00891393 0.339161 0.296119
-0.0550048 0.306358 0.270229
-0.098852 0.243634 0.21616
-0.119587 0.168274 0.15273
0.112698 0.132354 -0.0647202
0.0949526 0.144249 -0.112685
0.0614545 0.125255 -0.151426
0.0172653 0.0837934 -0.166882
-0.029131 0.034381 -0.154624
-0.066399 -0.00986805 -0.118791
-0.0866801 -0.0367018 -0.0826521
-0.0836266 -0.0524899 -0.0634068
-0.0583862 -0.0630964 -0.0718523
-0.0193277 -0.0665964 -0.104312
0.0234339 -0.0580861 -0.138638
0.0574909 -0.0250381 -0.14642
0.0729246 0.0422913 -0.108247
0.0637447 0.141226 -0.0257929
0.0313727 0.251777 0.0825154
-0.0173178 0.342709 0.187871
-0.0734116 0.388394 0.259048
-0.125958 0.379192 0.278271
-0.164366 0.322332 0.251633
-0.181321 0.237923 0.198213
-0.178066 0.148606 0.137637
0.0440422 0.181509 -0.0314725
0.0151643 0.209276 -0.0528523
-0.0271509 0.197591 -0.0647006
-0.0794578 0.151466 -0.0603008
-0.134632 0.0862842 -0.0423618
-0.183578 0.0167487 -0.0186942
-0.218931 -0.0362283 -0.00768532
-0.234855 -0.0732922 -0.0210259
-0.230977 -0.0946736 -0.0620982
-0.213609 -0.0948021 -0.120363
-0.190197 -0.0704118 -0.170862
-0.169948 -0.013709 -0.186974
-0.15948 0.0784864 -0.15344
-0.163267 0.19683 -0.0764853
-0.179687 0.315962 0.0243178
-0.203336 0.402246 0.1194
-0.227606 0.43196 0.180229
-0.244735 0.400331 0.194237
-0.247472 0.319081 0.169382
-0.232395 0.214489 0.124679
-0.205151 0.114631 0.0794018
-0.0375423 0.211004 0.00456758
-0.0749206 0.246214 0.0113354
-0.121901 0.236623 0.0279865
-0.177476 0.186626 0.0535715
-0.236671 0.113048 0.0789083
-0.294058 0.0312559 0.0923281
-0.343686 -0.0325349 0.0803091
-0.379705 -0.07596 0.0365575
-0.39914 -0.0967981 -0.0353489
-0.404792 -0.0885089 -0.11926
-0.40004 -0.049962 -0.188638
-0.389743 0.0227558 -0.21983
-0.377093 0.128255 -0.202048
-0.365353 0.253134 -0.144809
-0.353865 0.36958 -0.0666616
-0.340391 0.443999 0.00438407
-0.322563 0.455045 0.0449086
-0.297998 0.402431 0.0503587
-0.263972 0.300283 0.02976
-0.221198 0.180402 0.00117943
-0.178447 0.0752175 -0.0176239
-0.114508 0.219204 0.0237455
-0.15487 0.253406 0.0539679
-0.200179 0.242248 0.0971115
-0.252486 0.190556 0.145316
-0.309809 0.117443 0.1832
-0.370718 0.037721 0.194511
-0.430803 -0.0208845 0.168881
-0.48406 -0.0560815 0.104224
-0.524134 -0.0665335 0.00990378
-0.54912 -0.0473304 -0.0941748
-0.557653 0.00051756 -0.181418
-0.549973 0.0785761 -0.231848
-0.526592 0.18359 -0.238706
-0.490386 0.30136 -0.212939
-0.443068 0.40488 -0.169884
-0.38693 0.463099 -0.133421
-0.325149 0.456981 -0.119887
-0.261745 0.389496 -0.124557
-0.198664 0.274727 -0.138878
-0.139919 0.14766 -0.147086
-0.0950158 0.0428885 -0.13384
-0.175464 0.20808 0.00998414
-0.211319 0.234892 0.0536248
-0.246814 0.219589 0.117176
-0.287715 0.169309 0.187119
-0.335685 0.105345 0.243266
-0.39308 0.0410263 0.264882
-0.457111 0.00182464 0.240976
-0.521651 -0.0128777 0.171443
-0.576771 -0.00567769 0.069407
-0.615087 0.0245288 -0.043975
-0.630469 0.0750127 -0.143567
-0.618915 0.146889 -0.212994
-0.579309 0.237977 -0.248268
-0.515025 0.336527 -0.259554
-0.431303 0.419336 -0.257178
-0.335665 0.459839 -0.258758
-0.237004 0.440874 -0.2728
-0.145363 0.367073 -0.286604
-0.0666594 0.250254 -0.293615
-0.00668271 0.125595 -0.281477
0.0264937 0.0266341 -0.238151
-0.213481 0.183128 -0.0388684
-0.237752 0.198359 0.00616682
-0.256255 0.178035 0.0813963
-0.278677 0.132766 0.169217
-0.310619 0.0852966 0.246633
-0.35759 0.0470481 0.289268
-0.418524 0.038005 0.281768
-0.487431 0.0523032 0.22396
-0.551323 0.0810378 0.13062
-0.597303 0.120046 0.0218002
-0.615092 0.165688 -0.0801626
-0.597337 0.220676 -0.162168
-0.542188 0.286665 -0.22172
-0.454053 0.357096 -0.266508
-0.342185 0.414827 -0.300847
-0.219001 0.438657 -0.33484
-0.0980034 0.412591 -0.369808
0.00650972 0.341226 -0.38877
0.0860285 0.232637 -0.388279
0.134727 0.119162 -0.360276
0.147594 0.0301476 -0.296768
-0.225937 0.152249 -0.10757
-0.234412 0.155267 -0.0708943
-0.232373 0.131075 0.00652602
-0.232868 0.0941462 0.10458
-0.245052 0.0674712 0.199621
-0.276678 0.0605688 0.265463
-0.328458 0.0860155 0.28087
-0.395022 0.131566 0.244802
-0.461566 0.181057 0.172342
-0.510718 0.224741 0.0810421
-0.529346 0.259016 -0.0106578
-0.508034 0.28973 -0.0928797
-0.444704 0.324114 -0.16402
-0.344743 0.362337 -0.228771
-0.220901 0.394452 -0.285753
-0.0890051 0.404575 -0.337608
0.0351019 0.377187 -0.380321
0.135679 0.315433 -0.397778
0.20342 0.223153 -0.390017
0.233954 0.127367 -0.353756
0.225957 0.0507982 -0.285461
-0.212522 0.122378 -0.166779
-0.204762 0.115235 -0.143379
-0.183598 0.0897869 -0.0729847
-0.163583 0.0637824 0.023862
-0.156162 0.0592326 0.124561
-0.170284 0.0840272 0.20309
-0.208361 0.142725 0.234711
-0.266302 0.216679 0.218562
-0.32934 0.282752 0.169823
-0.377891 0.326332 0.103471
-0.397903 0.344766 0.0335352
-0.379408 0.347943 -0.0335942
-0.320205 0.349287 -0.0974952
-0.225937 0.355874 -0.160789
-0.111252 0.36486 -0.218298
0.00701817 0.364818 -0.266815
0.113709 0.340141 -0.299752
0.194897 0.291609 -0.307302
0.242377 0.219347 -0.292248
0.254094 0.143602 -0.255781
0.232134 0.0799986 -0.198967
-0.177773 0.0956637 -0.191231
-0.157995 0.0809561 -0.178986
-0.124141 0.0569256 -0.121425
-0.0900259 0.0438215 -0.0389147
-0.067551 0.0613747 0.0494847
-0.0655032 0.115894 0.121039
-0.0875457 0.204167 0.151597
-0.131409 0.301865 0.143162
-0.184328 0.38003 0.112081
-0.227499 0.420471 0.0714973
-0.248158 0.422216 0.030981
-0.237453 0.399412 -0.00729929
-0.193213 0.371225 -0.0453918
-0.120492 0.350542 -0.0857123
-0.0337374 0.34035 -0.12184
0.0518283 0.332231 -0.146949
0.124596 0.309992 -0.154464
0.175358 0.272174 -0.143586
0.198717 0.216868 -0.119667
0.195057 0.158073 -0.0888754
0.168252 0.105405 -0.0562192
-0.126483 0.0697049 -0.159172
-0.101948 0.0503077 -0.149966
-0.0651809 0.0294171 -0.107067
-0.0267474 0.0301738 -0.0505281
0.00362234 0.0689826 0.00392761
0.0182913 0.150304 0.0407608
0.0130899 0.264012 0.0440006
-0.0117715 0.380906 0.021736
-0.0474678 0.468001 -0.00689185
-0.0792413 0.504975 -0.0288777
-0.0977226 0.492828 -0.0386306
-0.0966236 0.449374 -0.0390872
-0.0740413 0.398195 -0.0366179
-0.0336317 0.356174 -0.0358216
0.0124911 0.330277 -0.0322534
0.0527096 0.313341 -0.0179044
0.0813435 0.289597 0.0122081
0.0957824 0.255507 0.0487292
0.0945945 0.20933 0.083074
0.0802877 0.161032 0.105534
0.0566205 0.115709 0.108917
-0.066574 0.0445632 -0.0707969
-0.0441652 0.0226661 -0.0547921
-0.0135238 0.00667373 -0.0258587
0.0202445 0.0205707 -0.00318289
0.0512887 0.0783618 0.000756496
0.0744184 0.181567 -0.0215817
0.0854695 0.315028 -0.070207
0.0827786 0.44604 -0.12755
0.070036 0.53941 -0.170876
0.0553371 0.574196 -0.185555
0.0430574 0.553227 -0.169172
0.0359337 0.496782 -0.130263
0.0353658 0.430923 -0.0809236
0.039721 0.374368 -0.0299019
0.0408897 0.335696 0.022436
0.032352 0.308635 0.0835233
0.0154907 0.278367 0.15549
-0.00577984 0.239999 0.219584
-0.0289023 0.194141 0.26502
-0.0498803 0.148255 0.280221
-0.0661893 0.106888 0.256897
-0.00751016 0.0200008 0.0426248
0.00718605 -0.00234428 0.0689612
0.0243394 -0.0124433 0.0851533
0.0456207 0.0128468 0.0755287
0.0707557 0.0851564 0.0291854
0.0967879 0.203689 -0.0549736
0.120828 0.349661 -0.160249
0.139621 0.489135 -0.258821
0.151564 0.586577 -0.32446
0.156924 0.621666 -0.341758
0.154676 0.598396 -0.309769
0.143891 0.537744 -0.241294
0.125333 0.465956 -0.153359
0.0995816 0.401441 -0.0591563
0.0633157 0.352701 0.0359756
0.0148498 0.313908 0.136914
-0.0383363 0.272138 0.241932
-0.0873525 0.222482 0.326875
-0.126215 0.169492 0.380333
-0.150711 0.119617 0.391273
-0.159847 0.0793995 0.350844
0.0370087 -0.00390146 0.147101
0.0423931 -0.0258067 0.185779
0.0448559 -0.030684 0.194209
0.0522401 0.00294554 0.158785
0.0683597 0.0847192 0.0727348
0.093622 0.211149 -0.0612694
0.126305 0.362071 -0.212516
0.162099 0.503933 -0.346712
0.195459 0.602956 -0.433814
0.219555 0.640197 -0.458224
0.228616 0.620122 -0.419976
0.218678 0.562762 -0.334741
0.189873 0.492607 -0.223097
0.144778 0.426108 -0.101479
0.0843969 0.370599 0.0206372
0.0116804 0.320311 0.144408
-0.0623399 0.264898 0.266081
-0.126395 0.200984 0.360905
-0.172931 0.137213 0.418125
-0.198451 0.0806587 0.426595
-0.203278 0.0402881 0.379028
0.0603741 -0.0260783 0.214496
0.0562573 -0.0471245 0.262588
0.0458159 -0.0480546 0.268652
0.0397971 -0.00950663 0.219849
0.0457217 0.0755659 0.11197
0.0669194 0.202013 -0.0474231
0.103063 0.349761 -0.2211
0.149181 0.487666 -0.372701
0.197156 0.585296 -0.471905
0.23575 0.625519 -0.502634
0.255867 0.612519 -0.466091
0.251573 0.563953 -0.378949
0.222372 0.501052 -0.262934
0.171721 0.437367 -0.135195
0.10434 0.378386 -0.00797685
0.0261079 0.319005 0.117503
-0.0516541 0.251659 0.237152
-0.11797 0.175254 0.330199
-0.164892 0.101834 0.385371
-0.189854 0.0399437 0.392624
-0.194474 0.000129383 0.347379
0.0616104 -0.0443771 0.226256
0.050984 -0.0633173 0.275478
0.0327323 -0.060709 0.28182
0.0180229 -0.0210006 0.233591
0.0155604 0.0610325 0.127792
0.0306627 0.179629 -0.0248822
0.0637091 0.316124 -0.18917
0.11068 0.44322 -0.332047
0.16225 0.535028 -0.427069
0.206352 0.577029 -0.459022
0.233248 0.572383 -0.429881
0.236384 0.535424 -0.354851
0.214387 0.483254 -0.253641
0.17114 0.426582 -0.141418
0.112567 0.368531 -0.0306012
0.0448658 0.304981 0.0769389
-0.0217393 0.231764 0.177651
-0.0786201 0.15 0.25661
-0.119034 0.0730797 0.303083
-0.14156 0.0103043 0.30947
-0.148261 -0.0272193 0.273061
0.0487411 -0.144735 0.0448745
0.0520665 -0.23675 0.00747371
0.0602712 -0.314074 -0.0432351
0.0674497 -0.348681 -0.0887408
0.0697269 -0.318813 -0.114804
0.0647005 -0.221304 -0.112914
0.0511372 -0.0806292 -0.0863367
0.0308515 0.0667435 -0.0490179
0.00770449 0.180421 -0.02048
-0.014482 0.23102 -0.0109413
-0.0308266 0.216015 -0.0188058
-0.0394852 0.154627 -0.0333105
-0.0407447 0.0773406 -0.0421886
-0.0363784 0.0119455 -0.0389654
-0.0297354 -0.024643 -0.0242051
-0.0235566 -0.0303397 -0.00601077
-0.0220011 -0.0166135 0.00365114
-0.0272361 0.000655896 0.0032298
-0.0378362 0.0141306 -0.00249238
-0.0492181 0.0201538 -0.00847416
-0.0574753 0.0205236 -0.00906681
0.123483 -0.130387 0.0217576
0.129391 -0.227301 -0.0337246
0.132451 -0.31121 -0.101099
0.129665 -0.350443 -0.155473
0.120623 -0.320928 -0.179776
0.106295 -0.219719 -0.167603
0.0888983 -0.0721662 -0.126528
0.0721838 0.0813367 -0.0751188
0.0602807 0.197014 -0.0368883
0.0541219 0.244324 -0.0250563
0.0552526 0.221895 -0.0349795
0.0614014 0.153022 -0.0508995
0.0684945 0.0729606 -0.0561649
0.0726788 0.0124409 -0.0425517
0.0710441 -0.0117702 -0.0121811
0.0623775 -0.000893204 0.0219072
0.0445735 0.0280683 0.0428192
0.0181814 0.0548706 0.0467911
-0.0125117 0.0704117 0.0382286
-0.040386 0.0716444 0.024616
-0.0598299 0.0616953 0.0148108
0.205389 -0.097533 -0.0236526
0.215011 -0.187304 -0.0975812
0.212522 -0.269453 -0.17762
0.198395 -0.311202 -0.234262
0.175957 -0.288204 -0.249936
0.151555 -0.196704 -0.221369
0.132153 -0.0592681 -0.163048
0.123726 0.0834654 -0.09792
0.129052 0.188049 -0.0522929
0.145356 0.226125 -0.0405288
0.169215 0.198242 -0.0538128
0.193173 0.130435 -0.0706393
0.208642 0.0600434 -0.0698286
0.210111 0.0177311 -0.0418364
0.195421 0.0170469 0.00829756
0.166307 0.0514348 0.0634661
0.123794 0.0978184 0.100399
0.0719346 0.132579 0.111329
0.0184606 0.14593 0.0999458
-0.0274163 0.136765 0.0759582
-0.0591724 0.110493 0.0512459
0.269156 -0.0470252 -0.076535
0.280671 -0.118624 -0.164295
0.272484 -0.191169 -0.250103
0.247817 -0.234408 -0.303164
0.213659 -0.224802 -0.307202
0.181322 -0.156103 -0.260398
0.16118 -0.0451141 -0.186235
0.161451 0.0713618 -0.111226
0.183037 0.154136 -0.0633426
0.21958 0.17987 -0.0552341
0.263094 0.151144 -0.0735357
0.301575 0.0947989 -0.0907941
0.322703 0.0470332 -0.0815902
0.319622 0.0349876 -0.036071
0.291309 0.06587 0.0372231
0.242587 0.126098 0.116282
0.177759 0.187746 0.171977
0.104211 0.225306 0.190597
0.0325718 0.230173 0.17573
-0.0264253 0.204746 0.139409
-0.0658989 0.157994 0.0972492
0.294855 0.0154346 -0.117772
0.304579 -0.0303234 -0.208786
0.289755 -0.0882001 -0.290109
0.255749 -0.132958 -0.333484
0.21172 -0.142618 -0.323901
0.172465 -0.107205 -0.26193
0.150088 -0.0346627 -0.178617
0.153717 0.0447304 -0.103241
0.183275 0.0993337 -0.0618332
0.230029 0.112797 -0.0632375
0.283296 0.0893442 -0.0893987
0.328457 0.054529 -0.107806
0.351293 0.0403034 -0.0901445
0.344284 0.0671639 -0.0275461
0.306889 0.133436 0.0675839
0.246107 0.217853 0.168355
0.168761 0.288785 0.240426
0.0850591 0.321347 0.265005
0.00722142 0.309945 0.245006
-0.0532524 0.262432 0.196723
-0.0907004 0.192934 0.138733
0.27346 0.0820787 -0.129556
0.275295 0.0638782 -0.210571
0.251159 0.0212566 -0.276336
0.207662 -0.0265352 -0.303184
0.154961 -0.0590578 -0.281087
0.108713 -0.0622009 -0.214236
0.0809644 -0.0332349 -0.137068
0.0807783 0.00556559 -0.0771784
0.107733 0.0315728 -0.0550899