# vtk DataFile Version 2.0
Func
ASCII
DATASET RECTILINEAR_GRID
DIMENSIONS 21 21 21
X_COORDINATES 21 double
-4.7619
-4.28571
-3.80952
-3.33333
-2.85714
-2.38095
-1.90476
-1.42857
-0.952381
-0.47619
0
0.47619
0.952381
1.42857
1.90476
2.38095
2.85714
3.33333
3.80952
4.28571
4.7619
Y_COORDINATES 21 double
-4.7619
-4.28571
-3.80952
-3.33333
-2.85714
-2.38095
-1.90476
-1.42857
-0.952381
-0.47619
0
0.47619
0.952381
1.42857
1.90476
2.38095
2.85714
3.33333
3.80952
4.28571
4.7619
Z_COORDINATES 21 double
-4.7619
-4.28571
-3.80952
-3.33333
-2.85714
-2.38095
-1.90476
-1.42857
-0.952381
-0.47619
0
0.47619
0.952381
1.42857
1.90476
2.38095
2.85714
3.33333
3.80952
4.28571
4.7619
POINT_DATA 9261
SCALARS data double 3
LOOKUP_TABLE default
-0.144833 -0.0764344 0.0394364
-0.162667 -0.0682751 0.0777093
-0.172252 -0.0507015 0.123433
-0.17042 -0.032239 0.170152
-0.157195 -0.0181226 0.21308
-0.13611 -0.00843247 0.248946
-0.112742 0.000853212 0.282164
-0.0939124 0.0179256 0.314246
-0.0858769 0.0476489 0.344917
-0.0920688 0.0847621 0.369216
-0.113548 0.114288 0.377071
-0.146764 0.118479 0.357467
-0.184276 0.0866038 0.304405
-0.216987 0.0222098 0.22147
-0.237256 -0.0551991 0.120878
-0.240269 -0.118655 0.0195794
-0.225157 -0.147017 -0.06426
-0.194743 -0.13557 -0.115197
-0.155081 -0.0923315 -0.133383
-0.114162 -0.0355763 -0.125438
-0.0776317 0.0128014 -0.101217
-0.197163 -0.0922077 0.0165854
-0.223285 -0.0902554 0.0506212
-0.23797 -0.0786779 0.0942845
-0.236877 -0.0665775 0.141142
-0.220038 -0.0583501 0.186969
-0.192844 -0.0531286 0.227978
-0.162598 -0.044654 0.268639
-0.137947 -0.0215537 0.310115
-0.126175 0.0220107 0.350849
-0.131709 0.0782343 0.384531
-0.15587 0.127323 0.399302
-0.195197 0.145765 0.382716
-0.24106 0.118768 0.328623
-0.282896 0.0495297 0.242333
-0.311913 -0.0389975 0.137439
-0.322674 -0.114014 0.0333666
-0.312552 -0.148734 -0.0503045
-0.2833 -0.137012 -0.098243
-0.240186 -0.0887215 -0.113742
-0.191725 -0.0253558 -0.105149
-0.144512 0.0262864 -0.0832445
-0.237524 -0.100668 -0.0218329
-0.269852 -0.106421 -0.00260502
-0.288852 -0.103458 0.0277499
-0.289063 -0.100145 0.0637119
-0.270706 -0.0996818 0.102972
-0.240289 -0.0996506 0.141847
-0.205819 -0.0914686 0.184261
-0.177272 -0.0611267 0.231031
-0.162416 -0.00216439 0.279938
-0.165534 0.0749368 0.323428
-0.188639 0.145527 0.348578
-0.228786 0.180323 0.342369
-0.277294 0.16046 0.299019
-0.323757 0.0887251 0.225229
-0.360051 -0.00904709 0.135066
-0.380213 -0.0947402 0.047654
-0.38028 -0.135983 -0.0178526
-0.359482 -0.125625 -0.0502478
-0.320819 -0.0755076 -0.0568156
-0.271528 -0.0100494 -0.0474281
-0.218437 0.0408447 -0.0331374
-0.256975 -0.102611 -0.0697572
-0.292233 -0.114596 -0.0714655
-0.313857 -0.119518 -0.061683
-0.31602 -0.124554 -0.0437266
-0.298867 -0.131719 -0.0181282
-0.269044 -0.137172 0.0128228
-0.234428 -0.130109 0.05206
-0.204649 -0.0937355 0.100204
-0.187265 -0.0210227 0.155063
-0.186448 0.0752374 0.208125
-0.20463 0.166173 0.245822
-0.239923 0.217289 0.255023
-0.284699 0.205903 0.23051
-0.329888 0.134225 0.179899
-0.369408 0.0300971 0.117224
-0.398255 -0.0638935 0.0603286
-0.410616 -0.110798 0.0257446
-0.403006 -0.10312 0.0173372
-0.375576 -0.0545928 0.0248935
-0.333024 0.00903586 0.0361108
-0.280885 0.0559534 0.0394364
-0.256956 -0.0979585 -0.113461
-0.292463 -0.112391 -0.136993
-0.315723 -0.121716 -0.14981
-0.320633 -0.131925 -0.152933
-0.307214 -0.145054 -0.143562
-0.281141 -0.155514 -0.123551
-0.248851 -0.151002 -0.0906671
-0.218929 -0.11191 -0.0438758
-0.198104 -0.0301854 0.0148785
-0.190113 0.0798594 0.0761498
-0.197847 0.186409 0.125976
-0.220968 0.250932 0.151318
-0.25397 0.247651 0.147622
-0.290306 0.178197 0.123307
-0.326793 0.0713752 0.0918701
-0.360631 -0.0271033 0.0705301
-0.38503 -0.0768739 0.0723327
-0.393643 -0.0716403 0.0922491
-0.383594 -0.0260196 0.115612
-0.35571 0.0328799 0.129051
-0.313379 0.0734253 0.120219
-0.237981 -0.0864609 -0.144178
-0.27211 -0.0983284 -0.185507
-0.29677 -0.106294 -0.216985
-0.30557 -0.116472 -0.237026
-0.297898 -0.131675 -0.240362
-0.277997 -0.146061 -0.228685
-0.250153 -0.145952 -0.200652
-0.221079 -0.109136 -0.155158
-0.195983 -0.0259893 -0.0942029
-0.178237 0.0890419 -0.028329
-0.171306 0.203101 0.0286098
-0.176647 0.27539 0.0643235
-0.191547 0.278161 0.075605
-0.212615 0.212697 0.0723846
-0.239871 0.107401 0.0672744
-0.273219 0.00982841 0.077184
-0.305663 -0.0384167 0.112132
-0.329246 -0.0328166 0.15861
-0.33821 0.0102424 0.19646
-0.329675 0.0628873 0.211021
-0.304385 0.095131 0.190389
-0.215176 -0.0684793 -0.156579
-0.248188 -0.0724837 -0.206281
-0.274599 -0.0726908 -0.246608
-0.288017 -0.0772502 -0.273659
-0.286791 -0.0909097 -0.281197
-0.27348 -0.108901 -0.271466
-0.250047 -0.116161 -0.243793
-0.220919 -0.0880365 -0.197501
-0.190119 -0.0129641 -0.135385
-0.160685 0.0964224 -0.0691598
-0.136734 0.20839 -0.0125533
-0.121422 0.281862 0.0230898
-0.11495 0.288336 0.0363978
-0.117035 0.228974 0.0396434
-0.130605 0.13042 0.0457478
-0.158048 0.0402988 0.0723267
-0.193081 -0.000286521 0.127751
-0.227243 0.0102239 0.192876
-0.252858 0.0534084 0.24198
-0.263988 0.100403 0.258863
-0.258631 0.123596 0.23194
-0.199166 -0.0440033 -0.154412
-0.232248 -0.035279 -0.20319
-0.260794 -0.0220004 -0.24211
-0.278223 -0.0157022 -0.266197
-0.282028 -0.024406 -0.270103
-0.273351 -0.0457726 -0.256694
-0.252197 -0.0633658 -0.225958
-0.221476 -0.0508281 -0.178229
-0.184194 0.0064956 -0.117581
-0.143326 0.0995113 -0.0566364
-0.103552 0.199701 -0.00893135
-0.0693206 0.267697 0.0153035
-0.0432001 0.275455 0.0169182
-0.0272826 0.224165 0.0112422
-0.0263856 0.137555 0.0130628
-0.0448544 0.0613424 0.0417975
-0.0773811 0.0342461 0.105458
-0.116057 0.0545282 0.181966
-0.152504 0.101267 0.241336
-0.179169 0.144492 0.264757
-0.191614 0.158588 0.24023
-0.195635 -0.0136223 -0.147102
-0.229334 0.0110398 -0.188647
-0.259056 0.0407385 -0.218836
-0.27782 0.0600623 -0.233136
-0.282594 0.0571695 -0.228444
-0.273942 0.0312157 -0.208295
-0.251176 -0.000530002 -0.173675
-0.216489 -0.00993903 -0.126221
-0.172671 0.021473 -0.0712059
-0.122968 0.0895955 -0.021475
-0.072461 0.170775 0.00993252
-0.0261899 0.228925 0.0140814
0.012105 0.237312 -0.00582988
0.0393376 0.197 -0.0312124
0.0502739 0.127756 -0.0441496
0.0398292 0.0715788 -0.0226156
0.0120499 0.0631314 0.0419687
-0.0262378 0.0970912 0.126327
-0.067033 0.150354 0.197542
-0.102499 0.191802 0.233627
-0.126744 0.197691 0.220931
-0.202868 0.021238 -0.14189
-0.236287 0.0619256 -0.17392
-0.263936 0.10746 -0.192174
-0.278943 0.138435 -0.193479
-0.278487 0.139653 -0.177971
-0.263567 0.106968 -0.149906
-0.234188 0.058184 -0.111805
-0.193037 0.0229707 -0.0668919
-0.143651 0.0239152 -0.0214135
-0.0898508 0.0626847 0.012333
-0.0369456 0.121407 0.0223538
0.0102189 0.168293 0.00146769
0.0482964 0.178389 -0.0446598
0.0750154 0.152219 -0.094481
0.0864833 0.104836 -0.126306
0.0785017 0.0729519 -0.115683
0.0541983 0.0860017 -0.0533116
0.0192447 0.135267 0.0377609
-0.0197437 0.196077 0.123139
-0.0560599 0.236734 0.176997
-0.0837625 0.2352 0.183391
-0.208708 0.0579085 -0.143221
-0.237701 0.112801 -0.166721
-0.257427 0.171003 -0.173356
-0.261787 0.210244 -0.161959
-0.249178 0.212954 -0.136354
-0.222063 0.1721 -0.101572
-0.182379 0.105772 -0.0622842
-0.134346 0.0448451 -0.0231253
-0.0828942 0.0156218 0.0094551
-0.0324025 0.0254759 0.0246038
0.0119845 0.0622927 0.0120956
0.0465169 0.0988399 -0.0331198
0.0697955 0.111993 -0.103193
0.0820392 0.101178 -0.174669
0.0822016 0.0765733 -0.222518
0.0684733 0.0687162 -0.220792
0.0436655 0.101525 -0.159958
0.01258 0.163714 -0.0622813
-0.0202581 0.230245 0.0382402
-0.0503416 0.269746 0.112084
-0.0728211 0.262255 0.140715
-0.200107 0.0923665 -0.150379
-0.218253 0.157784 -0.167923
-0.22286 0.223906 -0.165057
-0.209448 0.267054 -0.142745
-0.178662 0.26861 -0.108512
-0.135244 0.219575 -0.0685345
-0.0838399 0.138206 -0.0301774
-0.0308124 0.0560872 0.000975025
0.0173896 0.00218802 0.0193238
0.0562036 -0.0114185 0.0162957
0.0811975 0.00789675 -0.0157823
0.0905699 0.0368911 -0.0796525
0.0860383 0.0539083 -0.166001
0.0714689 0.0567678 -0.251091
0.049669 0.0513301 -0.308082
0.0222314 0.0620758 -0.311007
-0.00776308 0.108084 -0.250822
-0.0360296 0.176978 -0.148663
-0.0605196 0.244904 -0.0362137
-0.0795876 0.281964 0.0544612
-0.0905132 0.27066 0.102835
-0.169787 0.120614 -0.160859
-0.17057 0.19174 -0.175389
-0.153886 0.260374 -0.165678
-0.117694 0.303021 -0.134431
-0.0656313 0.301444 -0.0924919
-0.00513335 0.245945 -0.0478166
0.0563435 0.154843 -0.0108445
0.110323 0.0597235 0.0124708
0.149293 -0.00943432 0.0183944
0.169168 -0.037602 0.00118711
0.166836 -0.0290325 -0.0436526
0.143047 -0.00402428 -0.116709
0.103108 0.0167421 -0.208331
0.0548845 0.0291624 -0.296474
0.00529799 0.0358264 -0.354797
-0.0404257 0.0560321 -0.358945
-0.0785799 0.105358 -0.300984
-0.105224 0.172165 -0.200243
-0.120869 0.235471 -0.0842835
-0.12695 0.268095 0.0144126
-0.123614 0.255265 0.074834
-0.121404 0.139282 -0.173816
-0.101283 0.211103 -0.188263
-0.0609629 0.277191 -0.174573
-0.00153013 0.315738 -0.136618
0.0701308 0.310096 -0.0876705
0.144066 0.251246 -0.0377876
0.210638 0.157521 -0.000695524
0.259934 0.0596036 0.017836
0.284384 -0.0134626 0.0165856
0.28122 -0.0458675 -0.00729206
0.24914 -0.040656 -0.054966
0.191576 -0.0164056 -0.125387
0.117041 0.0067375 -0.209938
0.036751 0.0227678 -0.290233
-0.0388776 0.0323858 -0.342971
-0.101609 0.0511087 -0.346917
-0.147159 0.0927242 -0.295506
-0.172041 0.148267 -0.205128
-0.179111 0.200981 -0.097778
-0.172631 0.227239 -0.00365389
-0.15585 0.215714 0.0579019
-0.0666914 0.148027 -0.188033
-0.026682 0.216582 -0.205188
0.0342489 0.276294 -0.19033
0.11201 0.308138 -0.147611
0.196896 0.298093 -0.0921033
0.277125 0.239362 -0.0363357
0.342007 0.150374 0.0031307
0.381322 0.0598011 0.0210752
0.388612 -0.00624117 0.0188888
0.363116 -0.0334901 -0.0035295
0.305506 -0.0256801 -0.044208
0.221453 -0.000776931 -0.101098
0.12151 0.0214968 -0.167789
0.018769 0.0337984 -0.231109
-0.0742345 0.0365658 -0.273085
-0.147516 0.0432554 -0.276854
-0.196803 0.0675439 -0.237213
-0.219025 0.104772 -0.166451
-0.218679 0.142899 -0.0799987
-0.202238 0.162805 -0.00296153
-0.175737 0.155848 0.0491756
-0.0230287 0.148772 -0.205736
0.0305853 0.211133 -0.228644
0.103805 0.262605 -0.21623
0.190235 0.286795 -0.172057
0.27825 0.272881 -0.111689
0.355485 0.217385 -0.0502653
0.411599 0.138778 -0.00676639
0.437283 0.063131 0.0144371
0.428272 0.011916 0.0172922
0.386168 -0.00400458 0.00410877
0.313303 0.00952805 -0.0205616
0.216524 0.0344594 -0.0544889
0.106743 0.0516997 -0.0944927
-0.00301423 0.0534477 -0.133677
-0.0998876 0.0413826 -0.160971
-0.173976 0.0284454 -0.16472
-0.220955 0.0295248 -0.140882
-0.238628 0.0450312 -0.0965774
-0.232362 0.0679313 -0.040114
-0.209585 0.0833399 0.0105424
-0.1783 0.0842881 0.0453167
-0.00376112 0.141916 -0.226157
0.0534956 0.19653 -0.257442
0.127542 0.238735 -0.251076
0.210775 0.255639 -0.209804
0.290998 0.23894 -0.148443
0.356352 0.18934 -0.0835322
0.398112 0.124926 -0.0359759
0.40886 0.0683934 -0.00931577
0.387094 0.0359349 0.00254496
0.336774 0.0337711 0.00381501
0.261374 0.0533171 0.000768607
0.167705 0.0762637 -0.00489376
0.0654041 0.0846514 -0.01372
-0.0343989 0.0712399 -0.0252683
-0.120538 0.0400196 -0.0357502
-0.184249 0.00451802 -0.0389829
-0.221853 -0.0185716 -0.0317943
-0.232315 -0.0237762 -0.0156999
-0.221093 -0.0137506 0.00779841
-0.195485 7.06261e-05 0.0284927
-0.163788 0.0112878 0.0427223
-0.00874799 0.129117 -0.2401
0.0427686 0.175328 -0.278844
0.107614 0.208437 -0.280171
0.177944 0.219054 -0.246539
0.241894 0.201233 -0.190072
0.289686 0.159139 -0.12658
0.31471 0.110287 -0.0771635
0.311951 0.0732486 -0.0451539
0.282821 0.0590398 -0.0236766
0.233182 0.0690673 -0.00721956
0.16693 0.0922772 0.0109372
0.0897319 0.110548 0.0316345
0.00868246 0.107715 0.0511956
-0.0683146 0.07799 0.0649021
-0.133146 0.028064 0.070398
-0.179206 -0.0275952 0.0690157
-0.203771 -0.0707921 0.0631832
-0.206778 -0.0918254 0.0560036
-0.192713 -0.0902959 0.0511837
-0.167843 -0.0750723 0.0454217
-0.139273 -0.0529352 0.0408167
-0.0274297 0.113046 -0.238163
0.0117595 0.151259 -0.281984
0.0607133 0.176394 -0.291
0.112082 0.181973 -0.266556
0.155944 0.164134 -0.219314
0.184366 0.130132 -0.162452
0.193437 0.0960626 -0.115791
0.180908 0.076314 -0.0819759
0.15015 0.0769604 -0.0547724
0.108295 0.0953009 -0.0278808
0.0591008 0.118641 0.00534311
0.00638073 0.129856 0.0451198
-0.0459208 0.115287 0.0858176
-0.093736 0.0712836 0.119225
-0.132643 0.00705631 0.138521
-0.158896 -0.0622713 0.141092
-0.170749 -0.118044 0.128372
-0.16842 -0.14784 0.106328
-0.154796 -0.149867 0.0816026
-0.134107 -0.131389 0.0569965
-0.111512 -0.0999748 0.0382771
-0.0471639 0.0962281 -0.21732
-0.0221199 0.127444 -0.262026
0.00920357 0.146143 -0.276929
0.0412902 0.148054 -0.261868
0.0661581 0.131431 -0.22536
0.0780076 0.105183 -0.179066
0.0751467 0.0835355 -0.139396
0.0578419 0.0767955 -0.108433
0.030765 0.0870154 -0.0807189
0.000960301 0.108768 -0.0501144
-0.0283372 0.12893 -0.0102901
-0.0553936 0.13222 0.0387025
-0.0793113 0.107881 0.0905189
-0.0996072 0.0545344 0.135326
-0.115292 -0.016908 0.163978
-0.125172 -0.0914119 0.171213
-0.128316 -0.151258 0.157356
-0.124539 -0.183021 0.129252
-0.11471 -0.18476 0.0951043
-0.100631 -0.16297 0.0610752
-0.0852044 -0.125827 0.0349125
-0.0563604 0.0816939 -0.177044
-0.0436468 0.106893 -0.217236
-0.0275014 0.120406 -0.234494
-0.0113802 0.120269 -0.227375
-0.000708381 0.106007 -0.20183
0.000226485 0.0866735 -0.16808
-0.00849111 0.0741483 -0.138194
-0.0255499 0.0753018 -0.113832
-0.0456648 0.0896165 -0.0905582
-0.0629449 0.110387 -0.0632334
-0.0752357 0.125417 -0.0262219
-0.0823129 0.12192 0.0205686
-0.0853149 0.0920115 0.0714968
-0.0860673 0.0361958 0.117218
-0.0860794 -0.0344831 0.14856
-0.0856986 -0.106044 0.159244
-0.0844056 -0.162853 0.148647
-0.0817285 -0.191999 0.122689
-0.0772493 -0.191851 0.0893964
-0.0704905 -0.168418 0.0557888
-0.0622829 -0.130364 0.0292834
-0.189755 -0.0616833 0.0664439
-0.214417 -0.0403416 0.111943
-0.228001 -0.0102626 0.16338
-0.226416 0.0156054 0.21496
-0.209554 0.0296079 0.261933
-0.181129 0.033226 0.301147
-0.148313 0.0330997 0.337368
-0.119243 0.0418789 0.371969
-0.101847 0.0675163 0.403988
-0.100291 0.105949 0.427953
-0.116127 0.138688 0.433478
-0.145986 0.142678 0.409327
-0.181699 0.102652 0.349403
-0.2133 0.0208045 0.257434
-0.232361 -0.0795234 0.146027
-0.233201 -0.166069 0.0323575
-0.21516 -0.210646 -0.0643331
-0.181003 -0.204882 -0.126881
-0.137682 -0.155822 -0.15409
-0.0944443 -0.085129 -0.151339
-0.0580814 -0.0201898 -0.126644
-0.251808 -0.0748002 0.0450776
-0.285977 -0.0592657 0.0852499
-0.304803 -0.0353624 0.133643
-0.302879 -0.0167606 0.184702
-0.280415 -0.0101052 0.23468
-0.243686 -0.0127496 0.279559
-0.202108 -0.0151069 0.324237
-0.166046 -0.000121421 0.369668
-0.144325 0.0418807 0.413382
-0.141801 0.103823 0.44795
-0.159813 0.160762 0.460824
-0.195233 0.181873 0.439065
-0.238676 0.146273 0.37644
-0.279019 0.0554024 0.278872
-0.307018 -0.0627513 0.160631
-0.316462 -0.167989 0.0418635
-0.304652 -0.224194 -0.0562766
-0.272824 -0.220586 -0.11658
-0.226806 -0.165604 -0.141356
-0.17616 -0.0852563 -0.137799
-0.128933 -0.0130797 -0.1148
-0.29388 -0.0832296 0.00225291
-0.333754 -0.07623 0.0245272
-0.355887 -0.0621925 0.0567716
-0.353831 -0.0539994 0.0947504
-0.328335 -0.0569111 0.137099
-0.287514 -0.0662657 0.179524
-0.241588 -0.0693655 0.226354
-0.202499 -0.0455443 0.278192
-0.17914 0.0160356 0.331687
-0.175531 0.104789 0.377659
-0.193392 0.189206 0.402104
-0.230029 0.2306 0.391268
-0.275876 0.202455 0.339345
-0.320635 0.105492 0.254116
-0.356174 -0.0283015 0.150604
-0.376037 -0.151064 0.0490447
-0.375959 -0.218733 -0.029563
-0.354137 -0.218813 -0.072494
-0.31358 -0.16145 -0.0868181
-0.262255 -0.0766162 -0.0816461
-0.208583 -0.00199754 -0.0660882
-0.307058 -0.0879861 -0.0544857
-0.347806 -0.0890982 -0.0574529
-0.370602 -0.0848313 -0.0497467
-0.369083 -0.0867988 -0.0330925
-0.344207 -0.0988723 -0.00660325
-0.304543 -0.114484 0.0268557
-0.260139 -0.118326 0.0704366
-0.222364 -0.0859463 0.124606
-0.19913 -0.00574553 0.185795
-0.193838 0.108477 0.243546
-0.208183 0.219443 0.282722
-0.240387 0.281422 0.28915
-0.281907 0.2628 0.257576
-0.324493 0.163569 0.19695
-0.362857 0.0187477 0.122783
-0.392032 -0.117223 0.0542713
-0.405693 -0.193864 0.00992145
-0.398865 -0.198129 -0.00575399
-0.371077 -0.142074 -0.00345818
-0.327345 -0.0578152 0.00471948
-0.274701 0.0142321 0.00897066
-0.295203 -0.0895644 -0.108904
-0.333389 -0.0954117 -0.138015
-0.355693 -0.0973922 -0.156922
-0.356084 -0.105922 -0.165021
-0.335398 -0.124727 -0.1575
-0.301331 -0.145236 -0.136339
-0.26197 -0.150527 -0.0993433
-0.22706 -0.112803 -0.0456748
-0.203058 -0.0191234 0.0213849
-0.192485 0.114279 0.0901068
-0.197197 0.246071 0.144409
-0.216862 0.325203 0.1698
-0.245199 0.316172 0.16157
-0.277161 0.218504 0.12958
-0.311089 0.0689946 0.0892042
-0.344903 -0.0731846 0.0595687
-0.371361 -0.153026 0.0556263
-0.382358 -0.15929 0.0720383
-0.373885 -0.105399 0.0928092
-0.346688 -0.0255119 0.104343
-0.305308 0.0394074 0.0957011
-0.262785 -0.0866359 -0.149923
-0.297038 -0.0918585 -0.200591
-0.31916 -0.093523 -0.241764
-0.323348 -0.102247 -0.269993
-0.309758 -0.122822 -0.277581
-0.284294 -0.146278 -0.265849
-0.252166 -0.154528 -0.233655
-0.220637 -0.116912 -0.179882
-0.193939 -0.0186203 -0.107827
-0.173987 0.123299 -0.030919
-0.163177 0.2659 0.0342009
-0.163055 0.355213 0.0731564
-0.170564 0.353521 0.0823172
-0.184469 0.260405 0.0733028
-0.206926 0.112781 0.0608698
-0.239141 -0.0269703 0.0647603
-0.273891 -0.102416 0.0972895
-0.3014 -0.105451 0.143728
-0.314451 -0.0522413 0.181727
-0.309619 0.021502 0.19557
-0.288209 0.0758205 0.174401
-0.231672 -0.077779 -0.170167
-0.26372 -0.0760587 -0.231847
-0.287296 -0.0694795 -0.284297
-0.297017 -0.0713929 -0.321733
-0.291661 -0.0890204 -0.335
-0.274934 -0.11456 -0.325612
-0.249024 -0.129044 -0.29289
-0.218181 -0.0991046 -0.23592
-0.18513 -0.00798944 -0.159022
-0.151458 0.128927 -0.0775585
-0.120486 0.269906 -0.00886964
-0.0957654 0.360761 0.0327859
-0.0778361 0.363357 0.0452576
-0.0690944 0.277823 0.0428882
-0.0750374 0.139493 0.0413068
-0.0997286 0.0118467 0.0619628
-0.137004 -0.0497829 0.11627
-0.176613 -0.0424077 0.183618
-0.209213 0.0144684 0.235166
-0.227806 0.0830355 0.252737
-0.230211 0.125131 0.225041
-0.21498 -0.0611838 -0.172355
-0.248061 -0.0463153 -0.234634
-0.275143 -0.024269 -0.28711
-0.290678 -0.0126425 -0.322887
-0.292268 -0.0228659 -0.333538
-0.28156 -0.0500606 -0.320626
-0.258141 -0.0742813 -0.283656
-0.224367 -0.0606766 -0.22254
-0.181939 0.0108515 -0.143198
-0.132768 0.128769 -0.0627102
-0.0812998 0.255278 0.00087306
-0.0329366 0.338639 0.0334576
0.00865975 0.342025 0.0346724
0.0384658 0.266477 0.0223412
0.0490356 0.144397 0.0146755
0.0343164 0.0377231 0.0361013
-0.000688993 -0.00160799 0.0983795
-0.046297 0.0235089 0.178153
-0.0922862 0.0892042 0.241854
-0.129731 0.155331 0.267519
-0.153233 0.185051 0.242485
-0.218017 -0.0352953 -0.166425
-0.254383 -0.00280558 -0.222167
-0.285258 0.0386909 -0.266703
-0.304279 0.066946 -0.293612
-0.308063 0.0655987 -0.296483
-0.29731 0.035412 -0.277065
-0.270656 -0.00345176 -0.235353
-0.229732 -0.0146022 -0.172323
-0.176425 0.0262944 -0.0953215
-0.113676 0.113416 -0.02235
-0.0470317 0.215146 0.028223
0.0168885 0.284373 0.0426852
0.0727153 0.286856 0.0225347
0.114574 0.224496 -0.0108005
0.135018 0.125512 -0.0352931
0.127623 0.0478684 -0.022818
0.0961939 0.0378416 0.0396902
0.0494739 0.0862291 0.127778
-0.00258407 0.165059 0.20477
-0.0505629 0.231655 0.244689
-0.0871104 0.250255 0.231986
-0.236718 9.62769e-05 -0.160739
-0.276208 0.0510765 -0.207195
-0.307882 0.111718 -0.24011
-0.324746 0.155134 -0.254377
-0.323174 0.160629 -0.246781
-0.304251 0.124522 -0.219639
-0.267443 0.0669173 -0.173951
-0.215305 0.0254578 -0.112046
-0.151262 0.0290605 -0.042345
-0.0799082 0.0786776 0.0172157
-0.00780588 0.150129 0.0487388
0.0580003 0.202309 0.0395662
0.112378 0.204242 -0.00674871
0.150831 0.158241 -0.0656056
0.168208 0.0874498 -0.110632
0.159777 0.0437359 -0.110448
0.128904 0.0663038 -0.0507147
0.0835453 0.139973 0.0444753
0.0324243 0.23335 0.136814
-0.0161723 0.301927 0.195777
-0.0549003 0.310988 0.202442
-0.253859 0.0425056 -0.162076
-0.291661 0.110413 -0.200026
-0.317225 0.186543 -0.221202
-0.323542 0.240884 -0.222536
-0.307902 0.249731 -0.204713
-0.273117 0.205315 -0.170963
-0.221093 0.127539 -0.124097
-0.156688 0.0549303 -0.0676047
-0.0857925 0.0205314 -0.00995898
-0.0147648 0.0320794 0.0322233
0.0492603 0.0729111 0.0426049
0.0998964 0.108319 0.0102768
0.134273 0.110678 -0.059337
0.15134 0.0820074 -0.139759
0.150196 0.0401117 -0.201006
0.129623 0.0293797 -0.209786
0.0935245 0.081645 -0.151296
0.0495254 0.177031 -0.0489339
0.00445139 0.282236 0.0593352
-0.0358279 0.352227 0.138937
-0.0656551 0.35413 0.167477
-0.251646 0.0864296 -0.171
-0.279456 0.167261 -0.202721
-0.289652 0.253205 -0.213522
-0.276282 0.312913 -0.202672
-0.238813 0.321421 -0.175161
-0.182824 0.267909 -0.135768
-0.113678 0.172149 -0.0900413
-0.0392862 0.0730503 -0.0421834
0.0317834 0.00655494 0.000609573
0.0918913 -0.0139598 0.0243353
0.13405 0.00113606 0.0154887
0.153688 0.022801 -0.0345212
0.151765 0.0262099 -0.118994
0.13208 0.0123823 -0.21147
0.0992349 -0.00565122 -0.280324
0.0566315 0.00896234 -0.292344
0.00949294 0.0816505 -0.233354
-0.0345249 0.19005 -0.125949
-0.070886 0.300952 -0.0057676
-0.0969871 0.370472 0.0901893
-0.11027 0.368454 0.137056
-0.220345 0.125582 -0.185361
-0.229288 0.213673 -0.213273
-0.215667 0.302773 -0.21524
-0.175824 0.362109 -0.192732
-0.112403 0.367327 -0.155089
-0.0342223 0.306084 -0.10952
0.0497432 0.198095 -0.0651732
0.128671 0.0819175 -0.0264387
0.191912 -0.00558005 0.00200591
0.231549 -0.047421 0.0097816
0.241614 -0.0496896 -0.012622
0.220298 -0.0371321 -0.0712182
0.173066 -0.0325481 -0.159029
0.108943 -0.0364676 -0.251839
0.0382391 -0.0395883 -0.319136
-0.0309711 -0.0117038 -0.329936
-0.0918806 0.0679357 -0.271642
-0.136817 0.177183 -0.165489
-0.163716 0.285162 -0.0429187
-0.173571 0.351022 0.0592498
-0.167761 0.348056 0.115697
-0.164172 0.15423 -0.204067
-0.148804 0.243522 -0.230421
-0.10749 0.329447 -0.225224
-0.0399863 0.383641 -0.191938
0.0474175 0.383915 -0.14361
0.142948 0.318158 -0.0902301
0.234818 0.206178 -0.0452912
0.310303 0.0852002 -0.0129116
0.358039 -0.00927276 0.00551578
0.371198 -0.0592809 0.00360726
0.345639 -0.0690612 -0.0235521
0.282746 -0.0607459 -0.0795533
0.192047 -0.0559169 -0.158375
0.0869389 -0.0568528 -0.240156
-0.0175606 -0.0565559 -0.298378
-0.109745 -0.0298435 -0.306183
-0.181658 0.0416007 -0.253053
-0.226097 0.138751 -0.157668
-0.243442 0.234984 -0.0457919
-0.238062 0.293837 0.0489684
-0.215326 0.29345 0.103522
-0.0978914 0.170622 -0.224325
-0.0585417 0.256173 -0.251477
0.00758348 0.334077 -0.241202
0.097128 0.379553 -0.198028
0.200505 0.374004 -0.138493
0.303882 0.307503 -0.0759558
0.394103 0.200297 -0.0278729
0.45814 0.0869876 0.0021041
0.485591 -0.000617225 0.0159949
0.471966 -0.0463703 0.0114545
0.415413 -0.0550997 -0.0117739
0.32021 -0.0478897 -0.0552491
0.198502 -0.0455506 -0.114965
0.0661242 -0.0517102 -0.177015
-0.0592031 -0.0599982 -0.221341
-0.163963 -0.0482264 -0.226662
-0.240298 0.00166483 -0.18459
-0.281705 0.0763021 -0.109913
-0.290399 0.154273 -0.0215575
-0.273498 0.205114 0.0531244
-0.23958 0.211114 0.0958935
-0.0435804 0.175839 -0.247281
0.0126138 0.253864 -0.278238
0.0938346 0.321121 -0.266583
0.193663 0.356435 -0.216951
0.300148 0.345394 -0.147765
0.398916 0.281803 -0.0762142
0.477258 0.186289 -0.0235013
0.523453 0.0903528 0.00759505
0.529736 0.0200652 0.0223718
0.494786 -0.0124801 0.0222161
0.418965 -0.0145901 0.0110132
0.30835 -0.00740326 -0.0115072
0.175646 -0.0110436 -0.0443178
0.036688 -0.0297511 -0.0805066
-0.0906369 -0.0562218 -0.108007
-0.193441 -0.0693994 -0.111977
-0.264165 -0.0497244 -0.085912
-0.29814 -0.00356886 -0.0392528
-0.298989 0.0539078 0.0168771
-0.274876 0.097855 0.06325
-0.236314 0.113811 0.0878138
-0.0181751 0.17026 -0.270898
0.042887 0.238625 -0.308611
0.125264 0.293873 -0.300021
0.220645 0.31935 -0.249472
0.316233 0.304081 -0.175647
0.398373 0.246728 -0.0980709
0.456457 0.167892 -0.0412469
0.481373 0.0949628 -0.00726653
0.469007 0.0476975 0.0121403
0.421514 0.0326147 0.0213761
0.341112 0.0390571 0.0274376
0.234336 0.0454601 0.0305601
0.112441 0.0327284 0.0282891
-0.0110576 -0.0030519 0.0204646
-0.120915 -0.0525703 0.0109927
-0.206028 -0.0946071 0.00802653
-0.260591 -0.10737 0.0166417
-0.282199 -0.0898235 0.033625
-0.275156 -0.0513496 0.0555289
-0.247641 -0.011858 0.0713933
-0.209693 0.0160424 0.0764393
-0.0210759 0.155832 -0.284381
0.0337685 0.213502 -0.328288
0.105369 0.256905 -0.325803
0.184667 0.273797 -0.281334
0.25904 0.256315 -0.211029
0.317282 0.207362 -0.134248
0.351529 0.147223 -0.0763388
0.355853 0.0983503 -0.0395906
0.330261 0.0743029 -0.0145619
0.279986 0.0758906 0.00541995
0.208387 0.089391 0.0286655
0.121132 0.093239 0.0553678
0.0264959 0.069985 0.080217
-0.0659761 0.0168611 0.0975133
-0.145458 -0.054494 0.104375
-0.203829 -0.122359 0.103104
-0.237403 -0.163117 0.09769
-0.24568 -0.169127 0.0903969
-0.23273 -0.145358 0.0837028
-0.205481 -0.107673 0.0738307
-0.171892 -0.0679988 0.0625653
-0.0414527 0.136505 -0.278577
-0.00069925 0.183634 -0.326836
0.0521838 0.216481 -0.33189
0.108357 0.226327 -0.296837
0.157177 0.20805 -0.23648
0.189598 0.168346 -0.167437
0.201169 0.126207 -0.113841
0.189592 0.0990307 -0.0775322
0.157834 0.0944996 -0.0498367
0.11346 0.108649 -0.022745
0.0602487 0.125737 0.0123548
0.00201488 0.125174 0.0555421
-0.0567471 0.0919308 0.0998081
-0.111286 0.0250073 0.135791
-0.155863 -0.0619387 0.155852
-0.186193 -0.147194 0.157806
-0.200223 -0.206687 0.144413
-0.198511 -0.228056 0.121607
-0.183793 -0.21361 0.0956137
-0.16067 -0.17621 0.0687739
-0.134363 -0.12768 0.0470208
-0.0638878 0.115937 -0.250801
-0.0393096 0.153746 -0.299484
-0.00698809 0.177929 -0.311276
0.0260833 0.182495 -0.28736
0.0512863 0.164945 -0.239845
0.0620075 0.134174 -0.183786
0.0566345 0.107217 -0.139215
0.0360161 0.0966464 -0.107621
0.00533305 0.105216 -0.0813501
-0.0274237 0.125964 -0.0526786
-0.0585873 0.142683 -0.0132597
-0.0865987 0.136855 0.0369471
-0.110638 0.0963976 0.0904628
-0.130449 0.0221808 0.136325
-0.14496 -0.0710493 0.164653
-0.153072 -0.162615 0.170387
-0.154107 -0.229842 0.155033
-0.148289 -0.257938 0.126027
-0.13646 -0.248067 0.0916873
-0.120455 -0.211087 0.0577282
-0.102456 -0.158609 0.0321842
-0.0744003 0.0981125 -0.201661
-0.063409 0.12799 -0.245072
-0.0480794 0.145173 -0.260302
-0.033179 0.146455 -0.246762
-0.0247182 0.131068 -0.213189
-0.0274716 0.108383 -0.172656
-0.0409306 0.0927933 -0.139853
-0.0628475 0.0927152 -0.115969
-0.0869809 0.107754 -0.094947
-0.106347 0.129585 -0.0704944
-0.118424 0.143167 -0.0352728
-0.123326 0.132896 0.0109385
-0.122721 0.0897181 0.0616526
-0.119216 0.0158798 0.106652
-0.114979 -0.0741917 0.136381
-0.110642 -0.16187 0.144772
-0.105999 -0.227329 0.132236
-0.100864 -0.255543 0.10566
-0.0948285 -0.247377 0.0733836
-0.0869416 -0.212231 0.0417639
-0.0769389 -0.161487 0.0186365
-0.215582 -0.0206787 0.0912521
-0.245161 0.0172219 0.141504
-0.262445 0.0602992 0.196178
-0.262379 0.0911195 0.250644
-0.244108 0.100293 0.300732
-0.211103 0.0902286 0.343578
-0.170999 0.0718569 0.383245
-0.132839 0.0632652 0.419719
-0.104754 0.0772386 0.450865
-0.0911686 0.112081 0.471445
-0.0947701 0.147198 0.4719
-0.112969 0.154729 0.442409
-0.138492 0.114129 0.377911
-0.161807 0.0243336 0.282042
-0.174512 -0.0914947 0.166876
-0.171983 -0.196988 0.0482528
-0.152241 -0.259284 -0.0555519
-0.118058 -0.264463 -0.126879
-0.0765495 -0.217733 -0.162716
-0.0374553 -0.141234 -0.165962
-0.00822882 -0.0651705 -0.142817
-0.280253 -0.0264137 0.0743582
-0.318161 0.007967 0.118675
-0.338806 0.0461231 0.16956
-0.336132 0.0695719 0.222963
-0.310243 0.0698673 0.275924
-0.26743 0.0509378 0.324635
-0.217899 0.0273897 0.373436
-0.17292 0.0230834 0.421552
-0.141243 0.0534073 0.465032
-0.127054 0.113642 0.496264
-0.132501 0.175604 0.503346
-0.155077 0.20204 0.474696
-0.186534 0.16533 0.405244
-0.216248 0.0630744 0.301114
-0.235782 -0.0763261 0.176591
-0.240501 -0.207009 0.0506424
-0.226355 -0.286163 -0.056256
-0.194648 -0.296406 -0.126258
-0.1515 -0.243669 -0.159921
-0.106831 -0.154954 -0.161983
-0.0692563 -0.0676784 -0.139335
-0.317331 -0.0322925 0.0310297
-0.358012 -0.00542806 0.0557134
-0.378693 0.0231808 0.0884691
-0.372808 0.0356924 0.127278
-0.341736 0.0250165 0.171623
-0.294178 -0.00248901 0.217288
-0.241286 -0.0283471 0.268321
-0.19583 -0.0240733 0.323425
-0.165976 0.0275372 0.377545
-0.153816 0.117873 0.420884
-0.161299 0.210915 0.439755
-0.18588 0.25985 0.421504
-0.219164 0.230057 0.361485
-0.251664 0.118022 0.267988
-0.276908 -0.0429767 0.156683
-0.290631 -0.197515 0.0469184
-0.287415 -0.292738 -0.0406348
-0.265547 -0.308824 -0.0926345
-0.228414 -0.253026 -0.114674
-0.184168 -0.156832 -0.113947
-0.14162 -0.0631351 -0.0972987
-0.318461 -0.0401704 -0.0307253
-0.355672 -0.0220521 -0.0339297
-0.372884 -0.00386621 -0.0283239
-0.364308 -0.0020803 -0.0132883
-0.33229 -0.022545 0.0132507
-0.286392 -0.056622 0.0487657
-0.237542 -0.0830061 0.0960967
-0.197636 -0.0686378 0.15398
-0.172928 0.00462037 0.21698
-0.163897 0.124356 0.273712
-0.171658 0.247584 0.308819
-0.193964 0.319053 0.308764
-0.223373 0.298104 0.269276
-0.252521 0.180479 0.200009
-0.278971 0.00371513 0.117771
-0.300176 -0.168578 0.0411891
-0.30918 -0.275435 -0.0111392
-0.301467 -0.296315 -0.0343821
-0.277034 -0.24028 -0.0379947
-0.240823 -0.141909 -0.0327758
-0.200339 -0.047836 -0.0262072
-0.290594 -0.0511832 -0.0934644
-0.320844 -0.0397813 -0.12572
-0.333707 -0.0289616 -0.149384
-0.32461 -0.0339171 -0.161767
-0.296173 -0.0604963 -0.156507
-0.257312 -0.097987 -0.134766
-0.216536 -0.123696 -0.0946283
-0.183707 -0.100984 -0.0367397
-0.163141 -0.0104852 0.0339187
-0.153599 0.132236 0.10437
-0.155624 0.279206 0.157544
-0.167843 0.368951 0.178854
-0.184951 0.356573 0.164155
-0.202727 0.237807 0.124083
-0.223132 0.0534143 0.0759341
-0.24691 -0.126968 0.0387944
-0.266717 -0.236795 0.0281973
-0.275378 -0.25789 0.038891
-0.269644 -0.201196 0.0556745
-0.250215 -0.104531 0.0657346
-0.221922 -0.0160101 0.0602331