# vtk DataFile Version 2.0
Func
ASCII
DATASET RECTILINEAR_GRID
DIMENSIONS 21 21 21
X_COORDINATES 21 double
-0.47619
-0.428571
-0.380952
-0.333333
-0.285714
-0.238095
-0.190476
-0.142857
-0.0952381
-0.047619
0
0.047619
0.0952381
0.142857
0.190476
0.238095
0.285714
0.333333
0.380952
0.428571
0.47619
Y_COORDINATES 21 double
-0.47619
-0.428571
-0.380952
-0.333333
-0.285714
-0.238095
-0.190476
-0.142857
-0.0952381
-0.047619
0
0.047619
0.0952381
0.142857
0.190476
0.238095
0.285714
0.333333
0.380952
0.428571
0.47619
Z_COORDINATES 21 double
-0.47619
-0.428571
-0.380952
-0.333333
-0.285714
-0.238095
-0.190476
-0.142857
-0.0952381
-0.047619
0
0.047619
0.0952381
0.142857
0.190476
0.238095
0.285714
0.333333
0.380952
0.428571
0.47619
POINT_DATA 9261
SCALARS data double 3
LOOKUP_TABLE default
-0.0785165 -0.00705701 0.168254
-0.0839036 -0.0379248 0.172324
-0.089188 -0.0653264 0.156835
-0.0928602 -0.071556 0.121889
-0.0905177 -0.0498445 0.0612652
-0.0850833 -0.0236069 0.0180466
-0.0748907 0.000427521 -0.0152151
-0.0640685 0.00564838 -0.043153
-0.0558314 0.0244679 -0.0754323
-0.0546907 0.0216653 -0.0817509
-0.0598723 0.00616524 -0.0695646
-0.0576361 0.00133975 -0.0412296
-0.056624 -0.0173245 -0.00225808
-0.0489366 -0.0591512 0.0434586
-0.0545084 -0.0997189 0.0855526
-0.0516129 -0.137561 0.107409
-0.0472603 -0.167414 0.122524
-0.0416553 -0.18692 0.127426
-0.0347074 -0.19394 0.142286
-0.0276753 -0.184098 0.123233
-0.0205814 -0.15501 0.0935197
-0.0859108 -0.000369393 0.183482
-0.0899326 -0.0335617 0.192557
-0.0932923 -0.0644592 0.181874
-0.097449 -0.0718747 0.146045
-0.0856953 -0.0482897 0.0852964
-0.0733598 -0.020591 0.0374219
-0.0547329 0.00417557 -0.00212614
-0.0383546 0.0086976 -0.0349996
-0.0160843 0.0280027 -0.0812681
-0.00582929 0.0240283 -0.0927292
-0.0029636 0.00690389 -0.0816785
0.00430534 0.00113857 -0.0548652
0.00918963 -0.0197484 -0.0152654
0.0201765 -0.064722 0.0331717
0.0158211 -0.110454 0.0773034
0.0192288 -0.151775 0.0992525
0.0232962 -0.185083 0.114671
0.0275569 -0.208153 0.119567
0.0324865 -0.217859 0.137863
0.0360326 -0.208746 0.120313
0.0385194 -0.176797 0.0912826
-0.086512 0.00819244 0.170853
-0.0877057 -0.0260764 0.183039
-0.0876775 -0.0599215 0.178379
-0.0914743 -0.0681018 0.146407
-0.0702202 -0.0440558 0.0921161
-0.0512235 -0.0168182 0.0465326
-0.0244854 0.00666876 0.00648072
-0.00249407 0.00913703 -0.0269227
0.0349051 0.0267359 -0.0812302
0.0560814 0.0209193 -0.0970975
0.0697173 0.00241699 -0.0891617
0.0837888 -0.0034441 -0.0671865
0.0941811 -0.0252309 -0.0319396
0.109666 -0.0706398 0.013641
0.10805 -0.119939 0.0536721
0.112071 -0.162199 0.0722633
0.114992 -0.197569 0.0856327
0.116638 -0.223789 0.0920782
0.117366 -0.237056 0.111533
0.114908 -0.229917 0.0989687
0.109753 -0.1966 0.0765488
-0.0942119 0.0150097 0.147516
-0.0943327 -0.020025 0.159138
-0.0922631 -0.0570239 0.156163
-0.0962688 -0.0689079 0.127408
-0.0709226 -0.0478925 0.0794033
-0.0495671 -0.023866 0.0374663
-0.0198481 -0.00281027 -0.00203984
0.00435959 -0.00179057 -0.0334574
0.0497334 0.0159633 -0.0877784
0.0778018 0.0107493 -0.105417
0.0993953 -0.005945 -0.100476
0.119769 -0.00862829 -0.0805123
0.13617 -0.0274685 -0.0483864
0.15804 -0.0700308 -0.00549515
0.15991 -0.118634 0.0293987
0.166114 -0.160981 0.0466701
0.169355 -0.197901 0.0575177
0.171149 -0.226558 0.0615016
0.168482 -0.243405 0.0809688
0.162579 -0.238466 0.0718308
0.152605 -0.205253 0.0553243
-0.0820277 0.0287703 0.0657245
-0.0793472 -0.00305929 0.0721182
-0.0748262 -0.0396506 0.0714915
-0.0789535 -0.0512409 0.0513352
-0.0520452 -0.0305521 0.00799242
-0.0307493 -0.010838 -0.0242406
-0.000594557 0.00241789 -0.0537117
0.023746 -0.00415032 -0.0778705
0.0761121 0.00234738 -0.13134
0.111751 -0.00944532 -0.145466
0.143141 -0.0294277 -0.13789
0.16941 -0.0316526 -0.123345
0.191674 -0.0480907 -0.0972246
0.21718 -0.0830213 -0.0536275
0.223822 -0.129969 -0.0301331
0.231492 -0.164286 -0.0216989
0.234795 -0.194525 -0.0165603
0.235584 -0.221115 -0.00396978
0.229037 -0.239375 0.00981273
0.217769 -0.240092 0.00854762
0.200838 -0.211425 0.00559188
-0.0796524 0.0353971 0.0232021
-0.0773719 0.00483279 0.0251101
-0.0736157 -0.032827 0.0231809
-0.0789658 -0.0465621 0.00612023
-0.0565531 -0.0274218 -0.0353536
-0.0398241 -0.0129662 -0.0619984
-0.0144946 -0.00688095 -0.0835089
0.0068621 -0.0191683 -0.103811
0.0580444 -0.0206078 -0.14743
0.096372 -0.0358606 -0.154881
0.133675 -0.055795 -0.141596
0.165286 -0.0544692 -0.126516
0.193537 -0.0652875 -0.100459
0.224103 -0.091578 -0.0545793
0.235012 -0.131976 -0.0350283
0.244784 -0.156222 -0.0310673
0.248944 -0.178209 -0.0299935
0.25116 -0.201376 -0.017286
0.241606 -0.219105 -0.00753103
0.227793 -0.224217 -0.00908888
0.207878 -0.200697 -0.00913378
-0.0816348 0.0380569 -0.00574897
-0.0817412 0.0086632 -0.00851265
-0.0808728 -0.0292398 -0.0148803
-0.0879903 -0.0449845 -0.0330104
-0.073995 -0.0264928 -0.076847
-0.0646954 -0.0171199 -0.101558
-0.0472706 -0.0183684 -0.11928
-0.0308588 -0.036216 -0.136674
0.0141615 -0.0464825 -0.16999
0.0521504 -0.0651602 -0.169581
0.0927347 -0.0847096 -0.147571
0.12884 -0.0794661 -0.127
0.16251 -0.0838637 -0.095259
0.19807 -0.100659 -0.0413672
0.21295 -0.131034 -0.0203313
0.224645 -0.141864 -0.0161714
0.229449 -0.152081 -0.0169041
0.234017 -0.168933 -0.00694585
0.222083 -0.184064 -0.000647356
0.207656 -0.193024 -0.00775569
0.187341 -0.175908 -0.0125975
-0.0794875 0.0435427 -0.0279632
-0.0819634 0.0172947 -0.0364476
-0.0834517 -0.0177649 -0.0476113
-0.092176 -0.0324767 -0.068111
-0.083051 -0.0141121 -0.112016
-0.0788988 -0.00798156 -0.135243
-0.068315 -0.014776 -0.150892
-0.0577182 -0.0383895 -0.167361
-0.0199369 -0.0564048 -0.194091
0.0147598 -0.0803417 -0.189259
0.0546755 -0.102836 -0.16396
0.0931481 -0.0987158 -0.134994
0.130105 -0.101787 -0.0952581
0.167698 -0.113683 -0.0339789
0.184984 -0.137629 -0.00664559
0.196309 -0.138338 0.00185295
0.199735 -0.138615 0.00254686
0.203954 -0.147331 0.0110606
0.189686 -0.159127 0.0128572
0.175552 -0.168394 0.00094136
0.156758 -0.154036 -0.00844349
-0.110883 0.027179 -0.0524621
-0.119414 -0.00223093 -0.0645569
-0.128235 -0.0384663 -0.0857055
-0.140765 -0.0541545 -0.107997
-0.147226 -0.0296965 -0.18599
-0.155017 -0.0240509 -0.224697
-0.157477 -0.0348044 -0.250322
-0.15401 -0.0598585 -0.266055
-0.13041 -0.0877404 -0.299049
-0.101204 -0.112956 -0.287447
-0.0629256 -0.131884 -0.251542
-0.0204369 -0.122065 -0.205863
0.022889 -0.117218 -0.146703
0.0700642 -0.121085 -0.055293
0.0921398 -0.129177 -0.0193127
0.109413 -0.111327 0.0018099
0.117878 -0.0942208 0.00861634
0.129828 -0.0946106 0.0188592
0.116378 -0.0986293 0.00918218
0.106907 -0.112895 -0.0224108
0.0931411 -0.107849 -0.0517116
-0.11762 0.0111439 -0.0311188
-0.127442 -0.0196005 -0.0436736
-0.137107 -0.0541586 -0.0704431
-0.148497 -0.0669886 -0.0967427
-0.159128 -0.0347089 -0.189902
-0.170951 -0.026411 -0.236498
-0.179568 -0.0379977 -0.266386
-0.181367 -0.0639344 -0.279354
-0.169111 -0.0994394 -0.312777
-0.14719 -0.12745 -0.296803
-0.114532 -0.146611 -0.255384
-0.0718456 -0.136919 -0.199011
-0.0270723 -0.130576 -0.128546
0.0225855 -0.132667 -0.0259634
0.0451428 -0.131705 0.0181698
0.0626548 -0.102677 0.0455321
0.0707448 -0.0739289 0.0544633
0.0832056 -0.0668035 0.058525
0.0691669 -0.0640256 0.041765
0.0613423 -0.0789862 -0.00597546
0.0502971 -0.0781464 -0.0526748
-0.11064 -0.0120634 0.0147298
-0.118704 -0.045018 0.00335099
-0.125704 -0.0772965 -0.0263782
-0.133077 -0.0857108 -0.0564509
-0.142324 -0.043427 -0.157292
-0.153951 -0.0295111 -0.207652
-0.165339 -0.0388743 -0.237642
-0.171033 -0.0633523 -0.246154
-0.170355 -0.104657 -0.277584
-0.158381 -0.134152 -0.25702
-0.135808 -0.152982 -0.21122
-0.0975487 -0.144349 -0.149153
-0.0565124 -0.138105 -0.0733937
-0.00990336 -0.141214 0.0299099
0.00935349 -0.132906 0.0798647
0.0238862 -0.0957008 0.107587
0.0294418 -0.0579442 0.114066
0.0394973 -0.0450158 0.106372
0.0260303 -0.0360085 0.084902
0.0197551 -0.0514916 0.0224887
0.0116938 -0.0538787 -0.0402222
-0.0877227 -0.0233698 0.0232831
-0.0954483 -0.0513036 0.013423
-0.101662 -0.0747858 -0.014135
-0.105229 -0.0737917 -0.042557
-0.11737 -0.0221004 -0.135827
-0.13153 -0.00263484 -0.177308
-0.149532 -0.0109154 -0.19659
-0.161133 -0.0370269 -0.199006
-0.181509 -0.0864577 -0.212035
-0.187868 -0.122003 -0.182322
-0.185373 -0.145942 -0.132331
-0.161495 -0.144215 -0.0762178
-0.134376 -0.142934 -0.0095356
-0.102917 -0.146973 0.0807982
-0.0918116 -0.137585 0.124446
-0.0847315 -0.0958165 0.14358
-0.0834368 -0.0521428 0.142576
-0.0768041 -0.0323433 0.131061
-0.085078 -0.0201354 0.103979
-0.084765 -0.0346251 0.0396731
-0.0831664 -0.0383367 -0.0228726
-0.0527657 -0.0394217 0.0451985
-0.0573306 -0.0645265 0.0375421
-0.0594419 -0.0810254 0.0132483
-0.0574159 -0.0713192 -0.0132154
-0.0662896 -0.0103008 -0.0984725
-0.0781346 0.0154426 -0.132139
-0.0976249 0.00982249 -0.142003
-0.111673 -0.0152694 -0.137199
-0.148012 -0.0699114 -0.134561
-0.170431 -0.10851 -0.0949127
-0.187611 -0.134614 -0.0389216
-0.17993 -0.137359 0.0116443
-0.169778 -0.139231 0.0690398
-0.157513 -0.143933 0.143576
-0.157754 -0.132554 0.179383
-0.161405 -0.086724 0.185473
-0.166885 -0.0379355 0.172639
-0.167242 -0.0130238 0.15153
-0.170407 0.00163731 0.117788
-0.165095 -0.0129238 0.0512497
-0.155481 -0.0193527 -0.0106027
-0.00513499 -0.0565962 0.0903694
-0.00238281 -0.0783537 0.085327
0.00505782 -0.0877936 0.0647592
0.0150672 -0.070944 0.0409968
0.021674 -0.0033125 -0.0365232
0.0209237 0.0268186 -0.0680385
0.0101054 0.0230393 -0.0757448
0.000118751 1.31137e-05 -0.0637866
-0.0377394 -0.0578999 -0.0519873
-0.0670168 -0.096611 -0.00194893
-0.0962899 -0.121264 0.0638694
-0.101882 -0.126058 0.111509
-0.107903 -0.128011 0.16192
-0.116192 -0.129538 0.21846
-0.129192 -0.112678 0.247339
-0.146771 -0.0605214 0.240817
-0.163097 -0.00561012 0.214094
-0.176887 0.0242218 0.172545
-0.178175 0.0403041 0.131292
-0.173373 0.0236638 0.0597615
-0.161978 0.0118201 -0.00387586
0.0320755 -0.0805164 0.115632
0.0389026 -0.106853 0.11506
0.0510788 -0.117081 0.0987938
0.066691 -0.0982977 0.0774296
0.0800803 -0.0262689 0.00425055
0.0857283 0.0091757 -0.0256111
0.0800456 0.0107318 -0.0314079
0.0750386 -0.0059998 -0.0173047
0.0315262 -0.0614665 -0.0031798
-0.00531247 -0.0951674 0.049247
-0.0472343 -0.114556 0.118066
-0.0655489 -0.115944 0.170132
-0.087421 -0.115438 0.222927
-0.114874 -0.116682 0.275162
-0.141458 -0.0958076 0.298096
-0.171933 -0.0412303 0.282217
-0.198234 0.0156465 0.244384
-0.223056 0.0458935 0.191232
-0.222849 0.0625326 0.142376
-0.217447 0.042584 0.0654413
-0.203208 0.025961 -0.000491877
0.0635817 -0.100503 0.13257
0.0741455 -0.131478 0.135447
0.0911333 -0.14366 0.121826
0.109819 -0.126074 0.0999744
0.134421 -0.0541417 0.0240212
0.14933 -0.01698 -0.0101947
0.152933 -0.0119546 -0.0224367
0.156333 -0.0222974 -0.00869003
0.1196 -0.073475 -0.0030331
0.084857 -0.0994319 0.0506172
0.0398846 -0.110029 0.124884
0.0146268 -0.105779 0.183829
-0.0180952 -0.0999648 0.242269
-0.0603654 -0.0970097 0.297162
-0.0977978 -0.0686922 0.3183
-0.1398 -0.0103847 0.29723
-0.175748 0.0489201 0.25206
-0.212864 0.0786481 0.188173
-0.213628 0.0958004 0.13244
-0.210706 0.0716998 0.0514022
-0.197162 0.0480966 -0.0156635
0.0870301 -0.114358 0.148923
0.0990738 -0.150502 0.155503
0.117467 -0.166731 0.145052
0.136198 -0.152684 0.120826
0.16717 -0.0836203 0.0438664
0.187889 -0.0469032 0.00390158
0.198901 -0.0391013 -0.0161798
0.210086 -0.0422598 -0.0072829
0.181809 -0.0872971 -0.0116052
0.15245 -0.103986 0.0412689
0.109116 -0.104487 0.119749
0.0809656 -0.0932212 0.184645
0.0418505 -0.0811882 0.249189
-0.0103238 -0.0741125 0.308885
-0.0551921 -0.0390192 0.332697
-0.105548 0.0215227 0.310876
-0.148829 0.0809996 0.262284
-0.195102 0.107633 0.191585
-0.197244 0.124183 0.134107
-0.197242 0.0950126 0.0516644
-0.185399 0.0644619 -0.0159167
0.100213 -0.121745 0.162664
0.110998 -0.161443 0.17552
0.127146 -0.181672 0.171367
0.14359 -0.17317 0.144601
0.173043 -0.112242 0.0812461
0.193238 -0.0796495 0.0369466
0.206661 -0.0706987 0.00794823
0.223487 -0.0647819 0.00878583
0.20143 -0.102281 -0.00264495
0.178675 -0.107144 0.0462086
0.140617 -0.0946624 0.125296
0.112949 -0.0748514 0.190792
0.0718018 -0.0551304 0.258108
0.0153974 -0.0433325 0.321073
-0.0315985 0.000957002 0.34885
-0.0854314 0.0630741 0.332237
-0.132013 0.121726 0.286308
-0.182596 0.142494 0.213093
-0.185612 0.158933 0.160713
-0.187958 0.123952 0.0832343
-0.178081 0.0848132 0.018911
0.104054 -0.122418 0.156215
0.11284 -0.165503 0.170187
0.125585 -0.189798 0.167341
0.137587 -0.185485 0.140864
0.162489 -0.129387 0.0770936
0.179573 -0.0981361 0.0312903
0.192209 -0.0868187 -0.000580282
0.210415 -0.0759119 -0.00260468
0.192445 -0.106348 -0.0176919
0.173723 -0.103711 0.0286633
0.139442 -0.0843538 0.108154
0.11288 -0.0595471 0.172922
0.0722355 -0.036626 0.241055
0.0163679 -0.0235051 0.307253
-0.0293166 0.0214649 0.337489
-0.08122 0.080944 0.322455
-0.125882 0.135874 0.279284
-0.174858 0.152783 0.211105
-0.17729 0.166423 0.161968
-0.180136 0.12856 0.0890182
-0.170867 0.0867439 0.0272323
0.0863043 -0.118985 0.103289
0.0902698 -0.162056 0.115702
0.0958366 -0.188583 0.114963
0.101383 -0.188716 0.0937858
0.113265 -0.140903 0.0356627
0.121116 -0.113872 -0.00602379
0.126971 -0.102113 -0.0363191
0.142848 -0.0857948 -0.0392982
0.123406 -0.109616 -0.0570911
0.107077 -0.0995811 -0.0166224
0.0771573 -0.0734257 0.0552275
0.05389 -0.0443477 0.113222
0.0184496 -0.0181479 0.175471
-0.0294628 -0.00327113 0.242257
-0.0683602 0.042982 0.269841
-0.111451 0.0998284 0.259617
-0.147591 0.150665 0.224707
-0.187218 0.162773 0.175237
-0.187232 0.174624 0.130836
-0.187621 0.135026 0.0712345
-0.177227 0.0909459 0.0211037
0.064073 -0.112953 0.0422342
0.0643199 -0.153991 0.0499668
0.0641737 -0.181011 0.0492652
0.0649368 -0.184583 0.0359698
0.0645488 -0.145137 -0.0153183
0.0633853 -0.122907 -0.0487813
0.0619852 -0.111962 -0.0725051
0.0739147 -0.0922662 -0.0728229
0.0529791 -0.110441 -0.0882251
0.0393195 -0.0951131 -0.0530759
0.0153832 -0.0646488 0.00883979
-0.00263114 -0.0326541 0.0559012
-0.0300685 -0.00423644 0.107358
-0.0662718 0.0119561 0.1685
-0.0952938 0.0574084 0.189091
-0.126603 0.110051 0.183235
-0.152123 0.156076 0.157567
-0.180554 0.164086 0.128893
-0.17855 0.174834 0.0904539
-0.177354 0.136097 0.0457733
-0.167976 0.0922288 0.00880805
-0.0862266 -0.0505856 0.167935
-0.0892055 -0.0870912 0.169708
-0.0903369 -0.117256 0.151048
-0.0898798 -0.124061 0.114386
-0.0799647 -0.0913697 0.0472697
-0.0682953 -0.0557677 0.00348244
-0.0527533 -0.0213876 -0.0274415
-0.0393558 -0.0117235 -0.052662
-0.0305255 0.0184699 -0.0820555
-0.0315627 0.0201946 -0.0837986
-0.041092 0.0067252 -0.0665047
-0.0433952 0.00233671 -0.0347789
-0.0474461 -0.0158574 0.00637872
-0.0447026 -0.0526764 0.052079
-0.0543238 -0.0977706 0.0943161
-0.0543629 -0.134711 0.112989
-0.0512648 -0.162795 0.126144
-0.0462867 -0.175432 0.133003
-0.03665 -0.184245 0.147326
-0.027207 -0.17159 0.126652
-0.017839 -0.138589 0.0946867
-0.0925304 -0.0434394 0.180884
-0.0937358 -0.0835523 0.187572
-0.0921183 -0.118739 0.174204
-0.0915554 -0.127586 0.136992
-0.0699223 -0.0936629 0.0714908
-0.0496449 -0.056414 0.0245626
-0.0239905 -0.0205732 -0.0111793
-0.00419234 -0.0106191 -0.040592
0.0203239 0.021705 -0.0835093
0.0290717 0.0235091 -0.0901363
0.0279525 0.00944904 -0.0738421
0.0305059 0.00526888 -0.0440229
0.0299168 -0.0141679 -0.00303876
0.0351683 -0.0531736 0.0439499
0.0264305 -0.103765 0.0868393
0.0262533 -0.144671 0.103696
0.0286008 -0.176988 0.11574
0.0319057 -0.194642 0.122307
0.0395191 -0.206927 0.140208
0.0454217 -0.196051 0.12204
0.0498674 -0.160705 0.0919906
-0.0927063 -0.031409 0.16447
-0.0912571 -0.073389 0.174335
-0.0862844 -0.11293 0.168058
-0.0854004 -0.12353 0.135823
-0.0536445 -0.0904009 0.0798674
-0.0261321 -0.0539705 0.037613
0.0084872 -0.0190976 0.00337836
0.0346405 -0.0104985 -0.0255207
0.0756849 0.0215815 -0.0762253
0.0964777 0.0227167 -0.0875121
0.107269 0.00835861 -0.0750127
0.117534 0.00521598 -0.0513576
0.123052 -0.0141913 -0.0164602
0.133006 -0.0528639 0.0255656
0.127107 -0.107314 0.0622898
0.12714 -0.149754 0.0735445
0.127795 -0.185273 0.0819172
0.128031 -0.208145 0.0898384
0.13085 -0.224973 0.108883
0.130249 -0.21753 0.0972771
0.126418 -0.181537 0.0759023
-0.100741 -0.0218698 0.139645
-0.0985322 -0.0645627 0.149156
-0.0922658 -0.10788 0.145325
-0.0922389 -0.123147 0.11722
-0.0576369 -0.0938485 0.0691373
-0.0285788 -0.0612772 0.0316951
0.00841891 -0.029174 -0.001143
0.0369214 -0.0218042 -0.027243
0.0862639 0.0111241 -0.0777823
0.114894 0.0135308 -0.0909304
0.135027 0.00167155 -0.0818022
0.152971 0.00240948 -0.0608006
0.165806 -0.0135631 -0.0299061
0.183356 -0.0490857 0.00845985
0.181407 -0.102981 0.0387283
0.183933 -0.145864 0.0475117
0.184959 -0.183395 0.0521206
0.185263 -0.209368 0.0560657
0.183996 -0.230402 0.0749478
0.17914 -0.225736 0.0670788
0.169634 -0.190155 0.0523994
-0.0956744 0.00069588 0.0472468
-0.0929859 -0.0393002 0.0514174
-0.0867741 -0.0835396 0.051496
-0.0881646 -0.0989455 0.0336156
-0.0556457 -0.072096 -0.00603491
-0.0290171 -0.0446802 -0.03076
0.0061878 -0.0205876 -0.0511691
0.0340663 -0.0207807 -0.0691652
0.0887292 0.00230477 -0.119466
0.124847 -0.00101959 -0.129823
0.155561 -0.0153201 -0.119248
0.18167 -0.0134888 -0.105389
0.202713 -0.0264903 -0.0823687
0.226304 -0.0540648 -0.0445392
0.230338 -0.10689 -0.0273899
0.235161 -0.142791 -0.0287943
0.236748 -0.175223 -0.030438
0.23725 -0.20255 -0.0158212
0.231494 -0.226065 -0.00257774
0.221809 -0.22895 -0.000405571
0.206354 -0.198944 0.00114297
-0.0971405 0.0125121 0.00336622
-0.096556 -0.0262859 0.00385534
-0.0933183 -0.0722106 0.00368827
-0.0975435 -0.0899942 -0.010573
-0.0736163 -0.0658545 -0.0469621
-0.0547081 -0.044379 -0.0653223
-0.0274019 -0.0279999 -0.0773879
-0.00392257 -0.034385 -0.0917151
0.0471017 -0.0188343 -0.132618
0.0853862 -0.025673 -0.136642
0.122588 -0.0398631 -0.120639
0.156023 -0.0345198 -0.106836
0.185316 -0.0418934 -0.0842085
0.216504 -0.0606721 -0.043868
0.226174 -0.107218 -0.030581
0.234371 -0.133168 -0.0361589
0.237559 -0.15769 -0.0416359
0.240332 -0.182712 -0.026476
0.231279 -0.206013 -0.0172994
0.219278 -0.213936 -0.0155501
0.20145 -0.189403 -0.011223
-0.101114 0.0186655 -0.0236185
-0.10429 -0.018942 -0.0266865
-0.10579 -0.0652889 -0.0306352
-0.113379 -0.0848997 -0.0461036
-0.101861 -0.0621365 -0.0848497
-0.0938612 -0.0461643 -0.101987
-0.078025 -0.0377348 -0.111122
-0.0615468 -0.0504199 -0.12336
-0.0198128 -0.0438979 -0.155157
0.0170898 -0.054763 -0.151898
0.0577165 -0.0691364 -0.127211
0.0972615 -0.0604703 -0.107965
0.134054 -0.0617664 -0.0790415
0.172556 -0.0710288 -0.0291855
0.187786 -0.10751 -0.0130252
0.199239 -0.119753 -0.0168089
0.203874 -0.13232 -0.022757
0.209594 -0.151278 -0.00983942
0.198139 -0.171799 -0.00407905
0.185737 -0.183617 -0.00895379
0.168142 -0.165511 -0.0108798
-0.0963469 0.0280567 -0.0418452
-0.102161 -0.00543392 -0.0500809
-0.10672 -0.048075 -0.0589495
-0.11705 -0.0657651 -0.0774298
-0.112521 -0.0427275 -0.117942
-0.111949 -0.0301158 -0.135318
-0.105427 -0.028117 -0.14418
-0.0968192 -0.0478554 -0.156682
-0.0639246 -0.0510861 -0.183001
-0.0309327 -0.0691521 -0.175796
0.009371 -0.0882781 -0.147933
0.0520122 -0.082356 -0.119517
0.0933675 -0.0836362 -0.0811969
0.135241 -0.0886499 -0.0219156
0.154304 -0.118815 0.00257609
0.166444 -0.120288 0.0051162
0.170258 -0.122176 0.00182546
0.175704 -0.132282 0.0131039
0.161909 -0.148599 0.0139583
0.149527 -0.160161 0.00278533
0.133349 -0.144521 -0.00515288
-0.12623 0.00767823 -0.0659114
-0.138624 -0.0297394 -0.0757476
-0.151372 -0.0738364 -0.0942911
-0.166384 -0.091218 -0.114758
-0.180111 -0.0619286 -0.193602
-0.194379 -0.0491342 -0.22982
-0.204391 -0.0509659 -0.252222
-0.205265 -0.0728117 -0.265631
-0.191206 -0.0864705 -0.303111
-0.166295 -0.106964 -0.291336
-0.1291 -0.123658 -0.254069
-0.0817693 -0.113164 -0.20874
-0.0326039 -0.107008 -0.149508
0.0206949 -0.103358 -0.0557484
0.0462839 -0.117362 -0.0201232
0.0654822 -0.0988812 -0.00064841
0.0748129 -0.082041 0.00599631
0.0875802 -0.0827412 0.0227483
0.0750181 -0.0904411 0.0119365
0.0672541 -0.106545 -0.0208196
0.0563704 -0.0996696 -0.0517527
-0.129183 -0.0114063 -0.0383162
-0.142371 -0.0500173 -0.0468142
-0.155652 -0.0915761 -0.0704759
-0.169489 -0.104325 -0.094964
-0.188439 -0.0659449 -0.19145
-0.208199 -0.0496068 -0.237711
-0.226414 -0.0524558 -0.266536
-0.234195 -0.0763936 -0.278347
-0.234551 -0.0997125 -0.318918
-0.218798 -0.125143 -0.304248
-0.188319 -0.144052 -0.262537
-0.140491 -0.135383 -0.207158
-0.0889382 -0.128671 -0.136462
-0.0319682 -0.123088 -0.0301116
-0.00458352 -0.127751 0.015364
0.0156078 -0.0967928 0.043434
0.0246047 -0.0667507 0.0542158
0.037 -0.0584155 0.0659595
0.0236637 -0.0582937 0.0477835
0.0167373 -0.0744034 -0.00300725
0.00790871 -0.0712566 -0.0537249
-0.117591 -0.0391037 0.0150851
-0.128015 -0.0797207 0.00944421
-0.137699 -0.117885 -0.0162411
-0.14685 -0.124227 -0.0438988
-0.164336 -0.0742611 -0.149236
-0.184385 -0.0512385 -0.200071
-0.206455 -0.0518712 -0.229812
-0.219389 -0.0754744 -0.237635
-0.233944 -0.106802 -0.277819
-0.230056 -0.135834 -0.259685
-0.211133 -0.156286 -0.214781
-0.168011 -0.150197 -0.15535
-0.119959 -0.144243 -0.0805274
-0.0656075 -0.139284 0.0259101
-0.0407642 -0.136049 0.0779288
-0.0233424 -0.0955057 0.107175
-0.0171587 -0.0549101 0.116325
-0.00836193 -0.0393038 0.116546
-0.0213789 -0.0320937 0.0934149
-0.027615 -0.0483047 0.0263572
-0.0342042 -0.0481278 -0.0421284
-0.0880173 -0.0466664 0.0242801
-0.0966716 -0.0812798 0.0209188
-0.104005 -0.109002 -0.00161792
-0.108701 -0.103922 -0.0263756
-0.126855 -0.0433658 -0.123498
-0.14854 -0.0143136 -0.164427
-0.176913 -0.0146567 -0.182446
-0.196849 -0.0414836 -0.18386
-0.232536 -0.0844019 -0.204394
-0.248073 -0.122044 -0.17725
-0.25034 -0.149569 -0.129152
-0.222995 -0.151758 -0.0776209
-0.189888 -0.151449 -0.014003
-0.15186 -0.148177 0.0776515
-0.135212 -0.142844 0.122115
-0.125418 -0.0970037 0.141759
-0.123829 -0.0498038 0.142634
-0.119425 -0.0276723 0.138682
-0.127079 -0.0165651 0.109232
-0.127114 -0.0322923 0.040212
-0.124374 -0.0340612 -0.027584
-0.0492701 -0.0604645 0.0459431
-0.0535262 -0.0918572 0.0450962
-0.0551594 -0.111592 0.0268224
-0.0533653 -0.0963256 0.00562076
-0.065545 -0.0257775 -0.0822835
-0.0833455 0.00980646 -0.113806
-0.112122 0.0113753 -0.12083
-0.13487 -0.0155908 -0.114148
-0.186099 -0.0665528 -0.117309
-0.218544 -0.10893 -0.0797545
-0.241688 -0.13959 -0.0260956
-0.23199 -0.146622 0.0182164
-0.217144 -0.149242 0.0703778
-0.199686 -0.146749 0.143828
-0.194982 -0.137757 0.178488
-0.196559 -0.0868189 0.182868
-0.202224 -0.0336404 0.169857
-0.20546 -0.00679232 0.154938
-0.207993 0.00733953 0.117718
-0.203114 -0.00924877 0.0465837
-0.192355 -0.0147822 -0.0194538
-0.00538645 -0.0727947 0.0914322
-0.00161541 -0.101087 0.0931279
0.00780514 -0.113795 0.0794388
0.0188455 -0.0907356 0.0623094
0.0255528 -0.0147026 -0.0159808
0.0214013 0.024544 -0.0438234
0.00347376 0.0266518 -0.0472825
-0.014436 0.00116638 -0.0324179
-0.0656629 -0.0558251 -0.0244572
-0.104984 -0.0990437 0.0244402
-0.140926 -0.127967 0.0883363
-0.14535 -0.135993 0.129023
-0.147597 -0.137303 0.172783
-0.151353 -0.131547 0.225866
-0.160201 -0.11439 0.251327
-0.176198 -0.0561283 0.240214
-0.193091 0.00348155 0.210319
-0.209283 0.0333078 0.171644
-0.210589 0.0492476 0.125514
-0.20596 0.0287971 0.0496214
-0.193157 0.0158547 -0.0167012
0.0331662 -0.101342 0.115836
0.041546 -0.1353 0.121712
0.0566705 -0.149357 0.112733
0.0745493 -0.124478 0.0992114
0.0899364 -0.0441543 0.026224
0.0938771 0.000392585 0.00120072
0.0826428 0.00799782 0.000769187
0.0707478 -0.0108314 0.018095
0.0144674 -0.0653076 0.0293612
-0.0325751 -0.102576 0.0811369
-0.0821779 -0.124677 0.148526
-0.100495 -0.127744 0.194013
-0.120096 -0.12499 0.240124
-0.144756 -0.117689 0.288039
-0.168672 -0.0944732 0.306463
-0.198865 -0.0323026 0.283917
-0.22696 0.0301332 0.24049
-0.255384 0.0606234 0.188234
-0.255806 0.0770962 0.13292
-0.250819 0.0524646 0.0512536
-0.23517 0.0336053 -0.01674
0.0638114 -0.123375 0.129705
0.0759771 -0.163753 0.137995
0.096643 -0.181371 0.131199
0.118464 -0.158907 0.117224
0.147331 -0.080727 0.0418829
0.162655 -0.0354986 0.012936
0.162833 -0.0247338 0.00609888
0.160938 -0.0361991 0.0231992
0.113525 -0.0858668 0.0263451
0.0694071 -0.113491 0.0800129
0.0165507 -0.124247 0.154074
-0.00962231 -0.118945 0.208178
-0.0415157 -0.108455 0.26145
-0.0827045 -0.0954818 0.312881
-0.118906 -0.0626236 0.329362
-0.162037 0.00399292 0.300488
-0.200885 0.0688468 0.247803
-0.242113 0.0976512 0.182544
-0.244226 0.11415 0.118889
-0.241633 0.0839576 0.0330338
-0.226397 0.056467 -0.0351735
0.0891107 -0.139521 0.144631
0.102738 -0.187022 0.1556
0.125069 -0.21077 0.151322
0.147239 -0.193535 0.134221
0.184075 -0.120709 0.0582392
0.206747 -0.0771411 0.0233651
0.216179 -0.0636577 0.0083604
0.223387 -0.0664373 0.0201496
0.18651 -0.108618 0.013544
0.148773 -0.124456 0.0671997
0.0976809 -0.122155 0.147014
0.0677349 -0.106911 0.209275
0.0279914 -0.0878041 0.270821
-0.025138 -0.069397 0.32858
-0.0700924 -0.0282602 0.34877
-0.123136 0.0408168 0.319005
-0.170478 0.105365 0.261882
-0.221557 0.129667 0.188174
-0.22546 0.144788 0.12203
-0.225701 0.108015 0.0346406
-0.211846 0.0721303 -0.0337591
0.107316 -0.148876 0.160735
0.119388 -0.202136 0.177682
0.139098 -0.232545 0.179568
0.158762 -0.222984 0.158225
0.194256 -0.162181 0.0983122
0.216891 -0.124608 0.0587055
0.229741 -0.110387 0.0338875
0.243477 -0.102037 0.036387
0.21441 -0.134915 0.0229837
0.1842 -0.135728 0.073024
0.138613 -0.116935 0.154823
0.108138 -0.0898136 0.219562
0.0647924 -0.0604808 0.286283
0.00506306 -0.0365378 0.349144
-0.043046 0.0152998 0.375411
-0.101055 0.0855721 0.352177
-0.152704 0.148245 0.29819
-0.208943 0.164732 0.220657
-0.21369 0.178966 0.160229
-0.216023 0.135112 0.0778585
-0.203602 0.0894124 0.0124103
0.112144 -0.14948 0.151042
0.121584 -0.206844 0.167831
0.137172 -0.242472 0.169827
0.151742 -0.238795 0.14784
0.182116 -0.184449 0.0876498
0.201422 -0.149163 0.0466555
0.213657 -0.132385 0.0188918
0.229302 -0.117717 0.0183843
0.205051 -0.14161 0.00139788
0.179379 -0.132695 0.0492703
0.137505 -0.104926 0.132437
0.10742 -0.0711545 0.197748
0.0633986 -0.0376617 0.26685
0.00284654 -0.0120932 0.334185
-0.044873 0.040207 0.364291
-0.101543 0.10687 0.343643
-0.151373 0.16457 0.293348
-0.205364 0.176051 0.221988
-0.208942 0.186457 0.16537
-0.210735 0.139057 0.0879993
-0.197692 0.090336 0.025122
0.0950166 -0.144944 0.0918501
0.0984077 -0.202523 0.106003
0.105017 -0.241266 0.109444
0.111783 -0.243586 0.0921014
0.126793 -0.19983 0.0384764
0.135375 -0.170159 0.00164586
0.139956 -0.153218 -0.0248541
0.153274 -0.131909 -0.0267186
0.127361 -0.147592 -0.0471008
0.104229 -0.129277 -0.00574086
0.0665633 -0.0929128 0.0692651
0.0391697 -0.0536501 0.128325
-0.000425897 -0.016386 0.192432
-0.0538164 0.0103636 0.261906
-0.0949511 0.0636789 0.290623
-0.14259 0.126562 0.277129
-0.183134 0.178711 0.237574
-0.226466 0.184175 0.187793
-0.226383 0.192142 0.137344
-0.224292 0.142889 0.0746888
-0.208744 0.0920669 0.02394
0.0705353 -0.137422 0.0256008
0.068989 -0.192368 0.0343101
0.0682034 -0.231519 0.0372721
0.069155 -0.238074 0.0273833
0.069159 -0.204029 -0.0187983
0.0670893 -0.180106 -0.0474809
0.0632538 -0.164286 -0.0676942
0.0725579 -0.13897 -0.0670039
0.04457 -0.147967 -0.0856617
0.0243002 -0.123325 -0.0504887
-0.00717241 -0.0819746 0.0134729
-0.0291971 -0.039659 0.0612048
-0.0607457 -0.000567358 0.114394
-0.102097 0.0263181 0.178829
-0.133098 0.0780795 0.20107
-0.168129 0.135375 0.194235
-0.196971 0.181607 0.166783
-0.227591 0.182603 0.141146
-0.224598 0.189501 0.0984583
-0.21991 0.141908 0.0523782
-0.20457 0.0920325 0.0153499
-0.0876963 -0.0873882 0.15576
-0.0864782 -0.128959 0.154165
-0.0814505 -0.161747 0.132656
-0.0752118 -0.169902 0.0967032
-0.0571432 -0.130556 0.026219
-0.039094 -0.0902367 -0.0146396
-0.0194398 -0.0501125 -0.0400017
-0.00435917 -0.0358896 -0.0602221
0.00407459 0.00399522 -0.084221
0.000287601 0.0125976 -0.0803755
-0.0134629 0.00508593 -0.0584414
-0.0207455 0.00670069 -0.0255244
-0.0299902 -0.00575415 0.0146263
-0.0324304 -0.0341983 0.0565595
-0.0466655 -0.0786708 0.0953672
-0.0501967 -0.111618 0.108315
-0.0490626 -0.135994 0.117963
-0.0453993 -0.142984 0.128074
-0.0339017 -0.154223 0.141317
-0.0229184 -0.14138 0.120505
-0.0123311 -0.109374 0.088523
-0.0935084 -0.0806229 0.164591
-0.0896656 -0.126942 0.167233
-0.080562 -0.165959 0.151137
-0.0729595 -0.177013 0.115058
-0.0412361 -0.137299 0.0484921
-0.0132449 -0.0954434 0.00669111
0.0172783 -0.0533683 -0.0211648
0.0389129 -0.0375867 -0.0440692
0.062967 0.00589411 -0.080343
0.0684256 0.0162893 -0.080558
0.0623237 0.00990295 -0.0591995
0.0590766 0.0135308 -0.0284114
0.0524598 0.00124396 0.0106397
0.0515903 -0.0283857 0.0520914
0.0375911 -0.0779645 0.0894822
0.0333931 -0.114663 0.0980651
0.0336425 -0.143317 0.104637
0.0358005 -0.156045 0.113821
0.0456523 -0.171103 0.130571
0.0535694 -0.161225 0.113333
0.0594513 -0.128223 0.0847962
-0.0936704 -0.0659224 0.143982
-0.0871382 -0.114625 0.149464
-0.0745467 -0.158979 0.141091
-0.0662999 -0.172786 0.11086
-0.0242513 -0.135119 0.0570628
0.0111387 -0.0944894 0.0225796
0.0507332 -0.0530757 -0.0012865
0.0788077 -0.037624 -0.0220452
0.119171 0.00713841 -0.0653747
0.136528 0.0184986 -0.070041
0.142208 0.013426 -0.052762
0.146747 0.0194765 -0.0290308
0.146243 0.00812914 0.00246405
0.149909 -0.020978 0.0369403
0.138539 -0.0744177 0.0658588
0.134193 -0.11291 0.0662358
0.132625 -0.145254 0.0672354
0.131887 -0.164283 0.0772184
0.136977 -0.184311 0.0950359
0.13874 -0.179176 0.0858813
0.136623 -0.146767 0.0679894
-0.10026 -0.0538823 0.11878
-0.0934909 -0.102985 0.124047
-0.0807231 -0.151336 0.118671
-0.0742541 -0.170591 0.0931545
-0.0309107 -0.137333 0.0485839
0.00488103 -0.100954 0.0199374
0.0461151 -0.0623475 -0.00163366
0.07648 -0.0475688 -0.0184807
0.125029 -0.00118302 -0.0612884
0.150704 0.012222 -0.0675399
0.166526 0.0103601 -0.0535576
0.179504 0.020754 -0.0326866
0.187065 0.0128324 -0.00564256
0.198877 -0.0135207 0.0244933
0.191809 -0.0669435 0.0458732
0.189935 -0.106336 0.0425429
0.18855 -0.140846 0.0385978
0.187592 -0.162968 0.0427695
0.188236 -0.187132 0.0603021
0.185334 -0.18519 0.0550286