# vtk DataFile Version 2.0
Func
ASCII
DATASET RECTILINEAR_GRID
DIMENSIONS 21 21 21
X_COORDINATES 21 double
-4.7619
-4.28571
-3.80952
-3.33333
-2.85714
-2.38095
-1.90476
-1.42857
-0.952381
-0.47619
0
0.47619
0.952381
1.42857
1.90476
2.38095
2.85714
3.33333
3.80952
4.28571
4.7619
Y_COORDINATES 21 double
-4.7619
-4.28571
-3.80952
-3.33333
-2.85714
-2.38095
-1.90476
-1.42857
-0.952381
-0.47619
0
0.47619
0.952381
1.42857
1.90476
2.38095
2.85714
3.33333
3.80952
4.28571
4.7619
Z_COORDINATES 21 double
-4.7619
-4.28571
-3.80952
-3.33333
-2.85714
-2.38095
-1.90476
-1.42857
-0.952381
-0.47619
0
0.47619
0.952381
1.42857
1.90476
2.38095
2.85714
3.33333
3.80952
4.28571
4.7619
POINT_DATA 9261
SCALARS data double 3
LOOKUP_TABLE default
-0.0141398 -0.247434 0.0443952
-0.00782054 -0.301496 0.0371383
0.00262453 -0.32014 0.011923
0.0148407 -0.30136 -0.0343092
0.0272719 -0.253602 -0.0968417
0.0387107 -0.191567 -0.168945
0.049442 -0.142343 -0.233918
0.0586882 -0.115843 -0.277139
0.0674006 -0.113123 -0.287578
0.0762338 -0.130894 -0.259662
0.0831581 -0.155525 -0.198737
0.0854238 -0.174071 -0.118577
0.0807393 -0.178171 -0.038078
0.0681497 -0.165439 0.0230226
0.0502329 -0.139679 0.0527868
0.0315985 -0.110285 0.0456005
0.0156046 -0.0846422 0.00822112
0.00536585 -0.0645759 -0.0405295
0.00259907 -0.0493286 -0.0840995
0.0057529 -0.0390784 -0.108905
0.0139376 -0.0304306 -0.109977
0.00785608 -0.296379 0.0514175
0.0102554 -0.358696 0.0404064
0.013521 -0.375503 0.00688537
0.0171266 -0.345596 -0.0511929
0.0220038 -0.280483 -0.127512
0.0277403 -0.199599 -0.213979
0.0357351 -0.136025 -0.289887
0.0454261 -0.101863 -0.336933
0.0572323 -0.0979444 -0.341756
0.0698023 -0.120041 -0.297796
0.0794745 -0.150897 -0.211856
0.08207 -0.17448 -0.101939
0.07455 -0.180656 0.00692808
0.0562031 -0.16676 0.0884148
0.0313905 -0.137876 0.125761
0.00668683 -0.105584 0.111049
-0.0124908 -0.0787068 0.0532179
-0.0220011 -0.0590638 -0.0210032
-0.0198261 -0.0462517 -0.0889109
-0.00894203 -0.0392536 -0.131496
0.00707432 -0.0334325 -0.139813
0.0358695 -0.331411 0.0483025
0.0322682 -0.397175 0.0330948
0.0242328 -0.408816 -0.00510289
0.013512 -0.36587 -0.0673513
0.00378843 -0.283322 -0.14631
-0.00306491 -0.185566 -0.233604
-0.00333168 -0.110792 -0.307674
0.00274861 -0.0727347 -0.348824
0.0147405 -0.0711268 -0.342594
0.0296232 -0.0993468 -0.28233
0.0420497 -0.136506 -0.175536
0.0465447 -0.16386 -0.0427784
0.0392551 -0.170326 0.086756
0.0193436 -0.154228 0.181796
-0.00775984 -0.12253 0.221941
-0.0335513 -0.0891336 0.196651
-0.0514797 -0.0639969 0.11705
-0.0564414 -0.0482633 0.0161089
-0.0465484 -0.0412466 -0.0776831
-0.0262579 -0.0401877 -0.140081
-0.00186287 -0.0385309 -0.158361
0.0604568 -0.345965 0.0318743
0.0486227 -0.407143 0.0131804
0.0264737 -0.408224 -0.0246442
-0.00233362 -0.350684 -0.0809488
-0.0312912 -0.253002 -0.149465
-0.0559456 -0.143998 -0.222052
-0.0700526 -0.0651447 -0.280276
-0.0720352 -0.0301728 -0.30573
-0.0628763 -0.0363746 -0.284596
-0.0468722 -0.073638 -0.210637
-0.0305304 -0.117529 -0.0911215
-0.0205485 -0.147354 0.0531195
-0.0219316 -0.152248 0.191531
-0.03627 -0.132727 0.290183
-0.058286 -0.0982136 0.326977
-0.0786196 -0.0648036 0.289131
-0.0899733 -0.043446 0.188815
-0.0868079 -0.0340619 0.0626048
-0.0679441 -0.0353161 -0.0547985
-0.0386198 -0.041519 -0.136371
-0.00691198 -0.0444141 -0.165991
0.074623 -0.334268 0.00194517
0.0543331 -0.38195 -0.0195536
0.017768 -0.367165 -0.0521243
-0.0297672 -0.294488 -0.0938108
-0.0801132 -0.186511 -0.138698
-0.125744 -0.0748034 -0.182236
-0.157939 -0.00196959 -0.212226
-0.172775 0.0203486 -0.214394
-0.170129 -0.000951165 -0.177238
-0.154575 -0.0510262 -0.0955252
-0.132959 -0.102108 0.0250186
-0.112986 -0.132549 0.165986
-0.101223 -0.133122 0.298793
-0.101012 -0.107957 0.38988
-0.108634 -0.0696381 0.417249
-0.115635 -0.0365253 0.367145
-0.114991 -0.0201745 0.251344
-0.101323 -0.0191182 0.107169
-0.0739249 -0.029915 -0.0283794
-0.0380676 -0.0439558 -0.124957
-0.00226262 -0.0509258 -0.164809
0.0741292 -0.295362 -0.0381855
0.0444142 -0.322106 -0.0625023
-0.0062959 -0.287577 -0.0867115
-0.0716533 -0.200565 -0.107631
-0.142109 -0.0876883 -0.120913
-0.208173 0.0173653 -0.126524
-0.258865 0.0736035 -0.121159
-0.287533 0.0733237 -0.0966136
-0.292135 0.0291732 -0.0449818
-0.276717 -0.0380261 0.0374249
-0.247812 -0.0972944 0.147606
-0.213826 -0.126881 0.271856
-0.183042 -0.120435 0.386448
-0.16117 -0.0868981 0.461151
-0.147148 -0.0428437 0.47527
-0.134632 -0.00887456 0.414847
-0.117991 0.00266132 0.290602
-0.0925416 -0.00460338 0.137643
-0.058087 -0.0250779 -0.00713532
-0.0191715 -0.0467541 -0.112914
0.0164037 -0.0573437 -0.160119
0.0608588 -0.232541 -0.0782611
0.0230213 -0.232848 -0.104076
-0.0381437 -0.176141 -0.119266
-0.116534 -0.0764449 -0.119184
-0.202022 0.0360737 -0.101909
-0.283758 0.126085 -0.0717542
-0.349014 0.156689 -0.0339358
-0.388461 0.125452 0.0135082
-0.398815 0.0518937 0.0745069
-0.382742 -0.0362336 0.151403
-0.346021 -0.104875 0.244249
-0.297311 -0.132836 0.344766
-0.246334 -0.117513 0.435244
-0.201112 -0.0734227 0.490163
-0.163514 -0.021716 0.490951
-0.130149 0.0147033 0.423849
-0.0971478 0.0227122 0.29796
-0.0612371 0.00825469 0.145054
-0.0223878 -0.0206816 -0.000321192
0.0157685 -0.0487407 -0.107961
0.047007 -0.0622207 -0.157815
0.0398813 -0.151887 -0.112701
-0.00168893 -0.122926 -0.138538
-0.066468 -0.04393 -0.144848
-0.149141 0.0661369 -0.126333
-0.240498 0.173713 -0.0834334
-0.329489 0.242309 -0.0240934
-0.402425 0.240992 0.0392907
-0.449079 0.173307 0.102847
-0.464508 0.0663789 0.166713
-0.449523 -0.0447746 0.232269
-0.408491 -0.12335 0.302674
-0.349457 -0.149188 0.375219
-0.282721 -0.123906 0.438662
-0.218035 -0.0679024 0.473041
-0.159995 -0.0071157 0.462537
-0.108358 0.0331325 0.393845
-0.0615783 0.0389436 0.273849
-0.0180184 0.018697 0.130003
0.0221614 -0.0167803 -0.00703901
0.0565101 -0.0495866 -0.109067
0.0806779 -0.0650711 -0.156245
0.0186816 -0.064382 -0.136691
-0.0201237 -0.00580263 -0.161499
-0.0796279 0.09411 -0.160295
-0.155922 0.212497 -0.127854
-0.241789 0.312305 -0.0665363
-0.327611 0.357202 0.0131504
-0.400656 0.322696 0.0934556
-0.450525 0.218381 0.165587
-0.471076 0.0785368 0.226467
-0.461045 -0.0550893 0.276767
-0.422779 -0.143532 0.322402
-0.362675 -0.167901 0.365813
-0.290332 -0.133831 0.40211
-0.216003 -0.0670653 0.417266
-0.146176 0.00216503 0.398664
-0.0832985 0.0464541 0.33391
-0.0281386 0.0511913 0.227233
0.0191137 0.0269364 0.100615
0.0580675 -0.0128696 -0.0201733
0.0872468 -0.0483893 -0.110133
0.104289 -0.0647002 -0.150998
0.00448027 0.0172229 -0.144942
-0.0245587 0.102105 -0.167609
-0.0693266 0.220388 -0.161414
-0.128313 0.345387 -0.121481
-0.197492 0.437658 -0.051451
-0.270119 0.46176 0.0369173
-0.335905 0.399053 0.123428
-0.385515 0.264091 0.195984
-0.412291 0.0967274 0.249274
-0.41285 -0.0560099 0.28346
-0.386974 -0.153727 0.306358
-0.338276 -0.178613 0.324364
-0.2741 -0.139362 0.337877
-0.203592 -0.0656407 0.338231
-0.133904 0.00923051 0.315986
-0.0692614 0.0563812 0.259884
-0.0124701 0.0606407 0.171458
0.0345083 0.0341378 0.0671213
0.070811 -0.00783326 -0.0324942
0.0955179 -0.0443462 -0.106585
0.107768 -0.060789 -0.139204
-0.00101815 0.0802948 -0.137083
-0.0145616 0.18524 -0.156442
-0.0371861 0.317011 -0.147705
-0.0703969 0.446774 -0.106664
-0.114172 0.533736 -0.0373667
-0.165705 0.543756 0.0487161
-0.218364 0.462644 0.131793
-0.264989 0.308048 0.198211
-0.299159 0.12292 0.24147
-0.315597 -0.0426849 0.261282
-0.31121 -0.147879 0.266237
-0.285909 -0.175589 0.265156
-0.243352 -0.136124 0.262268
-0.190008 -0.0610791 0.253317
-0.132384 0.0148829 0.231774
-0.075403 0.0623698 0.187773
-0.0233918 0.0659737 0.120382
0.0201186 0.038577 0.0405189
0.0534781 -0.00362734 -0.0359517
0.0757987 -0.0395516 -0.0928505
0.0871078 -0.0554272 -0.117208
-0.00208138 0.115392 -0.115404
0.0023473 0.231042 -0.13066
0.00522448 0.36974 -0.12182
0.00189803 0.502122 -0.0855569
-0.0118558 0.587199 -0.0253734
-0.0376875 0.592332 0.0490293
-0.0733367 0.505787 0.120875
-0.114653 0.345942 0.176629
-0.156173 0.155855 0.209535
-0.191186 -0.014154 0.218815
-0.213773 -0.123754 0.212595
-0.219699 -0.156211 0.200419
-0.208012 -0.121805 0.188666
-0.18134 -0.0518259 0.176329
-0.14445 0.0197019 0.159337
-0.101996 0.0639712 0.129446
-0.0592517 0.0658211 0.083746
-0.0210407 0.0381216 0.028023
0.00994742 -0.00300458 -0.0260435
0.0323535 -0.0371173 -0.0668815
0.046418 -0.0515944 -0.0847213
-0.0065754 0.119492 -0.0838623
0.0138443 0.235598 -0.0946379
0.0402964 0.373705 -0.087997
0.0654783 0.505831 -0.0615803
0.0814154 0.592119 -0.0174972
0.0821833 0.60158 0.037707
0.0655527 0.522938 0.0924696
0.0322483 0.372943 0.134888
-0.0139283 0.191726 0.158734
-0.0656002 0.0269679 0.162704
-0.114568 -0.0827309 0.153225
-0.152718 -0.120759 0.138812
-0.174336 -0.0959077 0.126236
-0.177715 -0.0370602 0.116448
-0.165166 0.0243432 0.107149
-0.140373 0.0613189 0.0918807
-0.108956 0.0596057 0.066445
-0.0766795 0.0314598 0.0322442
-0.0473381 -0.0078948 -0.0025396
-0.0230948 -0.0393218 -0.0304763
-0.0040623 -0.0516172 -0.0447195
-0.0222973 0.0955085 -0.0465835
0.00764311 0.201843 -0.0529921
0.0504922 0.332093 -0.0505852
0.097414 0.460525 -0.0378633
0.137964 0.549979 -0.0149736
0.162844 0.571323 0.015683
0.165856 0.511969 0.0494633
0.144268 0.385043 0.0773835
0.0995461 0.225186 0.0943599
0.0385977 0.0748371 0.0986118
-0.0292167 -0.0302511 0.0938205
-0.092947 -0.07353 0.0859105
-0.142825 -0.0612174 0.0803748
-0.173064 -0.0181287 0.0787779
-0.183247 0.0284704 0.079667
-0.175665 0.0545331 0.0783385
-0.155641 0.0473409 0.0701113
-0.129404 0.0182048 0.0529674
-0.101658 -0.0191225 0.0324623
-0.0754128 -0.0473892 0.0128777
-0.0515356 -0.0565915 -0.00124594
-0.0506288 0.0501772 -0.00796798
-0.0199104 0.137821 -0.00977864
0.0289848 0.253253 -0.012361
0.0870258 0.374504 -0.0151648
0.143031 0.467676 -0.0159633
0.186172 0.505947 -0.0123198
0.2076 0.474045 -0.00134668
0.201308 0.379952 0.011836
0.165984 0.250972 0.0238599
0.106824 0.122335 0.0326333
0.0328218 0.0260915 0.0384856
-0.0439197 -0.0213203 0.0436277
-0.111071 -0.0228592 0.0509222
-0.159769 0.00182292 0.0613403
-0.18709 0.0306657 0.0733947
-0.193735 0.0433446 0.0839883
-0.184182 0.0291694 0.0887955
-0.164352 -0.00154187 0.0837067
-0.13928 -0.0368726 0.072249
-0.112606 -0.0614484 0.0564955
-0.0860501 -0.0666403 0.039573
-0.0876964 -0.00568731 0.0300416
-0.0655798 0.0573068 0.0331583
-0.0225153 0.152156 0.0260245
0.0342912 0.262422 0.00806307
0.0951755 0.35865 -0.0165365
0.149116 0.415539 -0.0401075
0.185944 0.414618 -0.0520757
0.197845 0.358182 -0.0531463
0.18007 0.265165 -0.044676
0.134902 0.162531 -0.028763
0.0693861 0.0781155 -0.00857974
-0.00516849 0.0280955 0.0137635
-0.0757821 0.0130095 0.0375622
-0.131959 0.0188607 0.0621897
-0.168867 0.029216 0.0852893
-0.185798 0.0278236 0.105188
-0.185492 0.00635246 0.11856
-0.172911 -0.0260072 0.120282
-0.152692 -0.0589563 0.112328
-0.128467 -0.0791201 0.0959745
-0.102681 -0.0795715 0.0739444
-0.126075 -0.0617982 0.064015
-0.119134 -0.0258943 0.0720038
-0.091131 0.0456437 0.061499
-0.0457318 0.141915 0.0307526
0.0102628 0.238973 -0.0145592
0.0674891 0.312812 -0.0623737
0.11562 0.341771 -0.0950134
0.145901 0.322494 -0.1087
0.150814 0.265792 -0.102784
0.128791 0.190174 -0.0790981
0.0837278 0.119072 -0.0439351
0.0245137 0.0681761 -0.00364295
-0.0369973 0.0412955 0.0372081
-0.0901812 0.0299905 0.075802
-0.129214 0.0232818 0.108426
-0.151994 0.00903371 0.134541
-0.159206 -0.0188299 0.152151
-0.154397 -0.0521571 0.155828
-0.141192 -0.0819322 0.146913
-0.122586 -0.097161 0.126889
-0.101108 -0.0925154 0.0987798
-0.151763 -0.108723 0.0888156
-0.161756 -0.0982639 0.100553
-0.153225 -0.0500053 0.0883807
-0.125582 0.0303207 0.0503088
-0.0816142 0.12445 -0.00806862
-0.0282483 0.210117 -0.0719594
0.0255746 0.263343 -0.119093
0.0708752 0.275959 -0.141961
0.0983223 0.251682 -0.138112
0.102384 0.201327 -0.109157
0.0833368 0.143967 -0.0632768
0.0467356 0.0944052 -0.00985947
0.00208571 0.0590177 0.0434694
-0.0410357 0.0342182 0.0918284
-0.0766004 0.0138468 0.13045
-0.101506 -0.0104865 0.159326
-0.114422 -0.0427846 0.177513
-0.117244 -0.0757229 0.180036
-0.112105 -0.101593 0.168049
-0.101061 -0.111706 0.144141
-0.0862312 -0.102341 0.111492
-0.156419 -0.140258 0.104508
-0.180261 -0.150547 0.119876
-0.190038 -0.122969 0.108138
-0.181291 -0.0588003 0.0673127
-0.153404 0.028765 0.00332397
-0.109597 0.119683 -0.0685244
-0.0566872 0.188888 -0.124013
-0.00274449 0.225023 -0.153058
0.0416439 0.226098 -0.151511
0.0680732 0.196769 -0.120649
0.0735559 0.152096 -0.0694219
0.0602383 0.105638 -0.00896738
0.0347135 0.0654363 0.051034
0.00474595 0.0317023 0.104146
-0.0240468 0.00213145 0.144941
-0.0480332 -0.0285805 0.173399
-0.0644171 -0.0626771 0.189652
-0.0734149 -0.0936854 0.189568
-0.0757181 -0.115029 0.174596
-0.0723383 -0.120219 0.147771
-0.0649728 -0.107024 0.11258
-0.138618 -0.153649 0.108251
-0.170306 -0.177945 0.126288
-0.193181 -0.166568 0.117228
-0.200745 -0.117724 0.0790043
-0.189129 -0.0402379 0.017059
-0.158129 0.0486398 -0.0536615
-0.111844 0.124433 -0.110161
-0.0567602 0.174278 -0.141457
-0.00396075 0.192354 -0.142322
0.0366645 0.178913 -0.113432
0.0599111 0.145445 -0.0634812
0.0651412 0.103866 -0.00381864
0.0561613 0.0628388 0.0552348
0.0386871 0.0251225 0.106696
0.0175003 -0.00882638 0.144959
-0.00371607 -0.0419239 0.170009
-0.0214193 -0.0751298 0.182686
-0.0345951 -0.102719 0.180176
-0.0425154 -0.119351 0.163655
-0.0451784 -0.120412 0.136418
-0.0442252 -0.104927 0.10201
-0.105039 -0.150362 0.0984581
-0.136807 -0.181494 0.11649
-0.164719 -0.181105 0.110758
-0.181693 -0.145577 0.0794929
-0.182417 -0.0801669 0.0269512
-0.164162 0.000529318 -0.0338778
-0.128818 0.0739741 -0.0839413
-0.0808123 0.127484 -0.1131
-0.0302799 0.153499 -0.115844
0.0134364 0.150172 -0.0923296
0.0442933 0.125932 -0.0499679
0.0600931 0.0908151 0.00124128
0.0623603 0.0530917 0.0518961
0.0548082 0.0167862 0.0955841
0.0409526 -0.0163907 0.127303
0.0239056 -0.0477808 0.146842
0.0073637 -0.077596 0.155415
-0.00699232 -0.100817 0.151506
-0.0175998 -0.11308 0.135917
-0.0237587 -0.111285 0.11178
-0.0269531 -0.0954075 0.082092
-0.00752525 -0.275224 0.0624261
0.00736551 -0.328804 0.055276
0.0273181 -0.338375 0.0220639
0.0472446 -0.303524 -0.039014
0.0629052 -0.235318 -0.121769
0.0727783 -0.150543 -0.214175
0.0766214 -0.0838352 -0.294209
0.0743701 -0.0488016 -0.343801
0.0685446 -0.0476965 -0.350721
0.063688 -0.0773288 -0.310353
0.060656 -0.121926 -0.231683
0.058749 -0.164404 -0.133153
0.0563593 -0.191396 -0.0378635
0.0516687 -0.195317 0.0314298
0.0455177 -0.177474 0.0628621
0.0393269 -0.146689 0.0522027
0.0344235 -0.111572 0.00872668
0.0319673 -0.0773414 -0.0457926
0.0330999 -0.0494592 -0.0945913
0.0362884 -0.0313529 -0.121937
0.0404514 -0.0211963 -0.122807
0.021775 -0.32876 0.0628489
0.0334998 -0.390357 0.0495904
0.0464803 -0.395925 0.00628736
0.0575088 -0.346178 -0.0680092
0.0649972 -0.256046 -0.16522
0.0680408 -0.147794 -0.272076
0.0675346 -0.0634539 -0.362457
0.0636194 -0.0192838 -0.414645
0.0585302 -0.0172778 -0.414115
0.0550938 -0.0528607 -0.355451
0.0529284 -0.106383 -0.249193
0.0503319 -0.157166 -0.118326
0.0451579 -0.189594 0.00750644
0.0358703 -0.195266 0.0985974
0.0249421 -0.176747 0.137997
0.0153443 -0.144897 0.11921
0.0100648 -0.109631 0.0538809
0.0107491 -0.0759701 -0.0277505
0.0183657 -0.0502684 -0.102536
0.0299053 -0.0350021 -0.14868
0.0414345 -0.0270824 -0.156443
0.0584601 -0.367569 0.0487151
0.0635905 -0.431675 0.0284143
0.0636464 -0.429614 -0.0203498
0.0582008 -0.363158 -0.0976037
0.0488792 -0.251556 -0.194306
0.0370988 -0.122607 -0.29791
0.0268042 -0.0245055 -0.38245
0.0181952 0.0246538 -0.425525
0.0127508 0.0241739 -0.411963
0.011467 -0.0185529 -0.336393
0.0121065 -0.0799035 -0.209634
0.0118182 -0.136233 -0.0567518
0.00768973 -0.170936 0.0888651
-0.00199617 -0.176618 0.192823
-0.0136285 -0.157781 0.234587
-0.0223867 -0.127457 0.204933
-0.0242324 -0.0964355 0.117529
-0.0168955 -0.0685079 0.00873938
-7.13921e-06 -0.0498997 -0.0924363
0.021685 -0.0412191 -0.158617
0.0413767 -0.0370266 -0.175857
0.0901551 -0.383676 0.0195446
0.0852532 -0.44125 -0.00671735
0.0683299 -0.425772 -0.0544742
0.0413338 -0.341387 -0.122402
0.00948353 -0.211716 -0.202667
-0.0227589 -0.0692946 -0.284399
-0.048497 0.0338424 -0.346629
-0.0653441 0.0799555 -0.369573
-0.0724559 0.0712972 -0.339501
-0.0707353 0.0193473 -0.251391
-0.0640119 -0.0484897 -0.115088
-0.0564811 -0.106805 0.0452144
-0.0524024 -0.139784 0.195887
-0.0543519 -0.142884 0.300598
-0.0589061 -0.123385 0.337803
-0.0602761 -0.0964596 0.295801
-0.0537657 -0.0734702 0.18869
-0.0368182 -0.0558543 0.0556047
-0.0102059 -0.0486586 -0.0681836
0.0205109 -0.0490041 -0.152907
0.0466848 -0.0491325 -0.181013
0.107487 -0.371391 -0.0218979
0.091368 -0.412722 -0.0524998
0.0561577 -0.378118 -0.0933146
0.00603626 -0.275565 -0.142067
-0.0509629 -0.133567 -0.191485
-0.10704 0.0123511 -0.235712
-0.152043 0.108957 -0.262433
-0.181104 0.141337 -0.25771
-0.191975 0.116861 -0.210823
-0.186788 0.0524681 -0.11774
-0.170322 -0.0208953 0.014171
-0.148204 -0.0773898 0.164684
-0.126739 -0.103924 0.30375
-0.110539 -0.100793 0.396527
-0.0977965 -0.0789912 0.422502
-0.0836882 -0.0560857 0.369109
-0.0637379 -0.0434992 0.248971
-0.0356767 -0.0397574 0.100695
-0.000892144 -0.0466327 -0.0388289
0.0350651 -0.0574981 -0.136979
0.0634715 -0.0619265 -0.174725
0.104487 -0.330191 -0.0721127
0.074878 -0.347219 -0.106735
0.0206501 -0.289329 -0.13719
-0.052122 -0.169538 -0.160192
-0.132976 -0.0213022 -0.170355
-0.211657 0.117578 -0.168168
-0.275132 0.19575 -0.152729
-0.315819 0.2033 -0.117718
-0.329276 0.154546 -0.0566041
-0.318235 0.0733705 0.0330124
-0.287951 -0.00574216 0.147714
-0.245427 -0.0575278 0.273793
-0.199351 -0.0732127 0.387891
-0.157044 -0.0595889 0.459826
-0.119489 -0.0325076 0.471044
-0.0837903 -0.0120976 0.408876
-0.0469437 -0.0101537 0.28382
-0.00730958 -0.0211929 0.130595
0.0330906 -0.0431984 -0.0147788
0.0696961 -0.0650948 -0.119932
0.0951751 -0.0737741 -0.164242
0.0830397 -0.263828 -0.119195
0.0406744 -0.250695 -0.156157
-0.0287721 -0.166814 -0.176037
-0.119023 -0.0314431 -0.174273
-0.217778 0.117431 -0.148163
-0.313071 0.240216 -0.104278
-0.389809 0.290046 -0.0519388
-0.437441 0.263491 0.0078655
-0.450679 0.183008 0.0771581
-0.431861 0.0806301 0.157051
-0.386325 -0.00554506 0.248306
-0.322107 -0.0514385 0.34419
-0.250045 -0.0535629 0.428854
-0.180041 -0.0261903 0.477879
-0.116104 0.00912687 0.475249
-0.0580186 0.029484 0.408278
-0.00450604 0.0225366 0.284969
0.0446674 -0.00206652 0.135523
0.087408 -0.0380525 -0.00706403
0.120269 -0.0698465 -0.111798
0.138383 -0.0823714 -0.157686
0.0500433 -0.17879 -0.155973
-0.000308119 -0.132783 -0.193176
-0.077217 -0.0228861 -0.203009
-0.174638 0.125646 -0.18047
-0.280757 0.270837 -0.125834
-0.382961 0.371074 -0.0500598
-0.464844 0.386042 0.0295174
-0.515275 0.3193 0.105449
-0.527703 0.202269 0.17574
-0.503397 0.0755935 0.240688
-0.446998 -0.0190542 0.305034
-0.366632 -0.0590271 0.36868
-0.274249 -0.0464504 0.423192
-0.181624 -0.00336517 0.450306
-0.0955025 0.0426457 0.436803
-0.0185367 0.0654523 0.370163
0.0483412 0.0520136 0.255329
0.10386 0.0160745 0.117639
0.145783 -0.031381 -0.014114
0.172147 -0.0712544 -0.111445
0.180632 -0.0868711 -0.153631
0.0147075 -0.0861442 -0.177132
-0.0358134 -0.00730022 -0.212335
-0.109593 0.126822 -0.213598
-0.201585 0.286483 -0.176239
-0.301731 0.425319 -0.102737
-0.398815 0.500967 -0.00665193
-0.477645 0.479948 0.0891384
-0.527162 0.372693 0.172233
-0.540113 0.218974 0.237455
-0.5162 0.0675067 0.284567
-0.45849 -0.0368887 0.321601
-0.37391 -0.0729169 0.354135
-0.27393 -0.047745 0.380444
-0.170754 0.00962748 0.388361
-0.0729019 0.0661623 0.367611
0.0146301 0.0927057 0.306269
0.0887138 0.0753241 0.206149
0.146432 0.0312445 0.0868857
0.185508 -0.0241589 -0.0275346
0.205127 -0.0691828 -0.111956
0.205299 -0.0864507 -0.147405
-0.0133331 0.000369961 -0.17735
-0.0554342 0.108042 -0.208436
-0.114687 0.263422 -0.203681
-0.188261 0.432211 -0.158804
-0.26951 0.565088 -0.0778474
-0.350328 0.619615 0.0247494
-0.4186 0.568305 0.124254
-0.464701 0.427008 0.205389
-0.481439 0.241918 0.26098
-0.466583 0.0681858 0.2905
-0.42076 -0.0468923 0.304087
-0.348196 -0.082826 0.311314
-0.257859 -0.0503429 0.315571
-0.160494 0.0165178 0.309781
-0.0649848 0.0807075 0.286315
0.0223124 0.110634 0.234022
0.0963781 0.0914409 0.151869
0.15271 0.0427357 0.0542609
0.188717 -0.0168708 -0.0396132
0.204136 -0.0641587 -0.108694
0.200344 -0.0818769 -0.136312
-0.030818 0.0672943 -0.156766
-0.0571593 0.196811 -0.181341
-0.092671 0.367636 -0.172585
-0.137621 0.543079 -0.126868
-0.189987 0.672173 -0.0489034
-0.246079 0.712921 0.0479054
-0.298352 0.642199 0.14038
-0.339787 0.478991 0.212461
-0.364013 0.272932 0.256174
-0.366776 0.0829665 0.270787
-0.345639 -0.0422034 0.267115
-0.300827 -0.0822714 0.256798
-0.236943 -0.0495199 0.246485
-0.161443 0.0196113 0.232909
-0.0821019 0.0862311 0.210668
-0.00551237 0.117384 0.169691
0.0619616 0.0975375 0.10663
0.114411 0.0473209 0.0310919
0.148534 -0.0129352 -0.0418642
0.163888 -0.0596936 -0.0954823
0.162165 -0.0764897 -0.116013
-0.0418721 0.103405 -0.118651
-0.0488584 0.243893 -0.13492
-0.0560879 0.422185 -0.124148
-0.0672781 0.601187 -0.0835447
-0.0855428 0.729748 -0.0174853
-0.112282 0.766696 0.0633742
-0.14538 0.691033 0.140389
-0.181261 0.522025 0.198612
-0.215058 0.309161 0.230273
-0.240701 0.111902 0.234404
-0.25249 -0.0209707 0.221018
-0.245925 -0.0687331 0.20185
-0.220012 -0.043024 0.184884
-0.177587 0.02025 0.169371
-0.124115 0.0828156 0.151638
-0.0654699 0.111723 0.123035
-0.00879685 0.0912396 0.07862
0.0388056 0.0417305 0.0237287
0.0729708 -0.0163509 -0.0300119
0.0923886 -0.0602 -0.0700294
0.0980858 -0.0745197 -0.0857141
-0.0552254 0.105316 -0.0683766
-0.0445163 0.244917 -0.0754699
-0.0250961 0.421392 -0.0648306
-0.00374739 0.599653 -0.0346082
0.0116922 0.73005 0.0121386
0.0148603 0.772708 0.0689825
0.00234042 0.706663 0.124233
-0.0261319 0.548746 0.165669
-0.0678284 0.344736 0.186541
-0.115514 0.151097 0.185622
-0.160648 0.0151029 0.170706
-0.194172 -0.0418957 0.151709
-0.209246 -0.0290638 0.136097
-0.20355 0.0209015 0.12434
-0.179501 0.0727461 0.113885
-0.141606 0.0951396 0.0977631
-0.0972344 0.0728937 0.0702774
-0.0543886 0.0251245 0.0332395
-0.0186516 -0.0289878 -0.00452314
0.0073494 -0.0681876 -0.03419
0.0233184 -0.0787259 -0.048037
-0.0795428 0.0757809 -0.0117805
-0.0580064 0.202254 -0.0100494
-0.019633 0.367804 -0.00197777
0.0268823 0.540237 0.01354
0.0703709 0.673447 0.0354492
0.100462 0.729447 0.0624499
0.108873 0.68549 0.0916388
0.0915236 0.553705 0.114825
0.0483958 0.373145 0.12691
-0.013292 0.194094 0.126453
-0.0833126 0.0607291 0.117891
-0.149185 -0.00503139 0.107697
-0.199074 -0.00860828 0.101172
-0.22585 0.0225778 0.0987514
-0.228667 0.0582353 0.0981534
-0.210314 0.0701514 0.0941503
-0.177774 0.0444748 0.0811106
-0.13952 -0.00147379 0.0581168
-0.102195 -0.0507772 0.0319652
-0.0697976 -0.0844398 0.00863072
-0.0442219 -0.0899049 -0.00653001
-0.11586 0.0226552 0.0438933
-0.0933036 0.125152 0.0536513
-0.0475714 0.27071 0.0577002
0.0120201 0.432046 0.0560407
0.0731341 0.567213 0.0503634
0.123387 0.641074 0.0450955
0.151471 0.627884 0.046433
0.149585 0.533377 0.0511012
0.114589 0.387773 0.0562168
0.0522288 0.232726 0.0602596
-0.0273435 0.108004 0.0637079
-0.110206 0.0357797 0.0685259
-0.181387 0.0150257 0.0766006
-0.230199 0.0248512 0.0872724
-0.252875 0.0411313 0.0978002
-0.250323 0.0398866 0.104617
-0.228633 0.00927217 0.102898
-0.195836 -0.0352996 0.0902108
-0.158952 -0.0797975 0.0716857
-0.123095 -0.107317 0.0511029
-0.0915458 -0.106806 0.0324493
-0.159724 -0.0419474 0.0942149
-0.146657 0.0292025 0.111017
-0.107108 0.147291 0.110325
-0.0483163 0.291989 0.0912143
0.0186456 0.427287 0.0577879
0.0810047 0.520013 0.0203855
0.125746 0.541105 -0.00574768
0.143314 0.489539 -0.0187146
0.1267 0.38552 -0.0189385
0.0786917 0.260696 -0.00777842
0.00750307 0.149564 0.0111945
-0.073802 0.0740925 0.0349193
-0.149463 0.0377005 0.0610737
-0.206968 0.0264847 0.0870581
-0.240407 0.0229267 0.109012
-0.249106 0.007852 0.124871
-0.237143 -0.0281497 0.131284
-0.211512 -0.0716961 0.125062
-0.178856 -0.111246 0.109938
-0.144397 -0.132208 0.0888002
-0.112312 -0.125332 0.065054
-0.202304 -0.10591 0.134866
-0.206027 -0.0688285 0.157136
-0.183006 0.0183039 0.152051
-0.136564 0.142244 0.117457
-0.074653 0.274143 0.0597786
-0.00846195 0.382891 -0.00606734
0.0489468 0.436448 -0.0566098
0.0868845 0.427168 -0.0848634
0.0956509 0.365738 -0.0889849
0.0737013 0.273483 -0.0699416
0.0258095 0.179204 -0.0348597
-0.0377706 0.104095 0.00839272
-0.102679 0.0554676 0.0531362
-0.156373 0.026089 0.0943658
-0.191978 0.00477562 0.126721
-0.207091 -0.0227333 0.149461
-0.203568 -0.0634071 0.160852
-0.186764 -0.105634 0.157327
-0.16219 -0.139914 0.14216
-0.134408 -0.154252 0.118104
-0.107311 -0.141327 0.0887922
-0.226346 -0.157908 0.159248
-0.248354 -0.152476 0.184306
-0.246503 -0.0959997 0.176039
-0.219452 0.0048284 0.132042
-0.17073 0.128479 0.0592271
-0.10871 0.246693 -0.0247895
-0.0447925 0.325679 -0.091706
0.0101402 0.352432 -0.130394
0.0447164 0.329407 -0.137004
0.0527985 0.268532 -0.112373
0.0350315 0.192858 -0.0657037
-0.00223159 0.12209 -0.00821113
-0.0475143 0.0663169 0.050128
-0.0895939 0.0239129 0.102159
-0.121515 -0.0108229 0.141556
-0.13956 -0.0476415 0.168198
-0.14332 -0.0911856 0.181451
-0.136169 -0.131235 0.178067
-0.121954 -0.160118 0.161158
-0.104066 -0.168319 0.134266
-0.0854935 -0.15057 0.101106
-0.223185 -0.19014 0.166794
-0.259894 -0.209843 0.193151
-0.27804 -0.180259 0.183702
-0.272157 -0.102496 0.136016
-0.241604 0.00846137 0.0577788
-0.190543 0.127899 -0.0334367
-0.127541 0.221972 -0.107846
-0.0623751 0.274493 -0.151985
-0.007609 0.281484 -0.160114
0.0270449 0.247379 -0.132879
0.0382991 0.189881 -0.0802464
0.0284198 0.126585 -0.0151893
0.00528522 0.0690232 0.0502944
-0.0220698 0.0196797 0.107602
-0.0472263 -0.0229044 0.149926
-0.0658241 -0.0647739 0.177063
-0.0755153 -0.108542 0.189498
-0.0775431 -0.145249 0.184664
-0.073948 -0.168683 0.166004
-0.0667261 -0.171663 0.137208
-0.0580431 -0.150916 0.102203
-0.192761 -0.199989 0.157047
-0.237104 -0.235759 0.183021
-0.269434 -0.22675 0.174971
-0.281987 -0.170228 0.130279
-0.270227 -0.0756616 0.0560726
-0.234242 0.0364834 -0.0308637
-0.179018 0.134313 -0.103168
-0.11219 0.200702 -0.147076
-0.0469173 0.227496 -0.155954
0.00502899 0.213889 -0.129821
0.0375376 0.17286 -0.0782818
0.0494768 0.119367 -0.0142681
0.0452547 0.0650045 0.0498804
0.0314676 0.0147222 0.105353
0.013519 -0.0300604 0.145281
-0.00407418 -0.0725328 0.169471
-0.0178402 -0.113795 0.179191
-0.0271936 -0.145946 0.17293
-0.0323952 -0.164137 0.153705
-0.0340405 -0.163226 0.125349
-0.0338564 -0.141663 0.0917584
-0.143584 -0.189868 0.130633
-0.186579 -0.23252 0.153391
-0.223907 -0.236955 0.148072
-0.247196 -0.198226 0.112012
-0.249765 -0.121308 0.0508281
-0.228706 -0.0226945 -0.0211693
-0.186178 0.0690953 -0.0822207
-0.127359 0.137835 -0.120262
-0.0642653 0.173697 -0.128795
-0.00832986 0.173199 -0.107305
0.0330329 0.145521 -0.0638653
0.0568239 0.102822 -0.00955592
0.0646917 0.0556453 0.0447516
0.0608922 0.00986721 0.0913275
0.0493637 -0.0318023 0.124099
0.0341002 -0.0706706 0.14277
0.0190285 -0.106942 0.148907
0.00580167 -0.13371 0.14208
-0.00475591 -0.147113 0.124719
-0.0119801 -0.143723 0.100248
-0.0172066 -0.123389 0.0720302
0.00398169 -0.254191 0.0769727
0.0260613 -0.29514 0.0684942
0.0540306 -0.289954 0.0262819
0.0802575 -0.239482 -0.0507053
0.0982845 -0.15592 -0.154224
0.104996 -0.056752 -0.265999
0.0988469 0.0206381 -0.358915
0.0805447 0.0606976 -0.411694
0.0554684 0.0591416 -0.411876
0.0321667 0.0180009 -0.35722
0.0155893 -0.047134 -0.260901
0.00834045 -0.116866 -0.146074
0.010307 -0.173126 -0.0393785
0.0188204 -0.201791 0.0351932
0.0319101 -0.199674 0.0666872
0.0461868 -0.172315 0.0534072
0.0591986 -0.128295 0.00722475
0.0689322 -0.0777922 -0.0479666
0.0755305 -0.0346154 -0.097191
0.0778039 -0.00752907 -0.124082
0.075145 0.00279976 -0.124238
0.0371835 -0.30217 0.0690996
0.0582246 -0.348227 0.0519588
0.0816587 -0.336187 -0.0016443
0.101194 -0.268096 -0.0921665
0.112343 -0.160326 -0.209329
0.112391 -0.0356132 -0.333953
0.100386 0.0609507 -0.435153
0.0775149 0.110995 -0.488372
0.0492534 0.110288 -0.479159
0.0233017 0.0622034 -0.404887
0.00437545 -0.014299 -0.280372
-0.00516255 -0.0962903 -0.133278
-0.00563389 -0.163108 0.00339561
0.000565749 -0.198876 0.0990853
0.012608 -0.200955 0.137997
0.0276994 -0.175992 0.116564
0.0443162 -0.13323 0.0490454
0.0601359 -0.0826703 -0.0322821
0.0746573 -0.0399814 -0.106586
0.0850439 -0.0139315 -0.151468
0.0880654 -0.00441077 -0.1576
0.0787464 -0.338328 0.0428515
0.0944876 -0.38458 0.0161051
0.106213 -0.362487 -0.0431829
0.110425 -0.275429 -0.13412
0.105656 -0.144306 -0.246007
0.0912428 0.00296701 -0.361743
0.0693095 0.114901 -0.452014
0.0409617 0.171196 -0.492577
0.0110393 0.168803 -0.469011
-0.014325 0.11371 -0.378918
-0.0318085 0.0284152 -0.236865
-0.0397645 -0.0614671 -0.0716839
-0.0390499 -0.134296 0.0809294
-0.0322266 -0.174757 0.186705
-0.0190537 -0.181446 0.226802
-0.000767883 -0.162287 0.195101
0.0215348 -0.126626 0.107479
0.0457845 -0.082836 0.00153083
0.0703423 -0.0469434 -0.0967452
0.090422 -0.0262591 -0.159699
0.100254 -0.0187234 -0.174056
0.114503 -0.354789 0.00065871
0.120597 -0.393164 -0.0339205
0.115491 -0.356015 -0.0909357
0.0983993 -0.249347 -0.168343
0.0715282 -0.0988634 -0.256684
0.0373552 0.0633072 -0.342615
0.000950591 0.181646 -0.403902
-0.0342471 0.236427 -0.42037
-0.0643064 0.227582 -0.379886
-0.0853682 0.165045 -0.28038
-0.0957023 0.0745895 -0.134545
-0.0949627 -0.0170235 0.031137
-0.0853633 -0.0894805 0.182393
-0.0702299 -0.130485 0.284436
-0.0494039 -0.140945 0.318268
-0.0231122 -0.130208 0.27548
0.00799818 -0.107303 0.171527
0.0418962 -0.0771766 0.0453425
0.0755522 -0.0542184 -0.0714056
0.103436 -0.0423919 -0.149785
0.117974 -0.0374374 -0.173427
0.133893 -0.346946 -0.0519551
0.127872 -0.36893 -0.0920457
0.103399 -0.311731 -0.140222
0.062283 -0.185658 -0.193705
0.0102707 -0.0216231 -0.243784
-0.0467903 0.145509 -0.284061
-0.100098 0.258868 -0.303337
-0.143725 0.301883 -0.288899
-0.173102 0.279891 -0.232314
-0.186347 0.208187 -0.132424