# vtk DataFile Version 2.0
Func
ASCII
DATASET RECTILINEAR_GRID
DIMENSIONS 21 21 21
X_COORDINATES 21 double
-0.47619
-0.428571
-0.380952
-0.333333
-0.285714
-0.238095
-0.190476
-0.142857
-0.0952381
-0.047619
0
0.047619
0.0952381
0.142857
0.190476
0.238095
0.285714
0.333333
0.380952
0.428571
0.47619
Y_COORDINATES 21 double
-0.47619
-0.428571
-0.380952
-0.333333
-0.285714
-0.238095
-0.190476
-0.142857
-0.0952381
-0.047619
0
0.047619
0.0952381
0.142857
0.190476
0.238095
0.285714
0.333333
0.380952
0.428571
0.47619
Z_COORDINATES 21 double
-0.47619
-0.428571
-0.380952
-0.333333
-0.285714
-0.238095
-0.190476
-0.142857
-0.0952381
-0.047619
0
0.047619
0.0952381
0.142857
0.190476
0.238095
0.285714
0.333333
0.380952
0.428571
0.47619
POINT_DATA 9261
SCALARS data double 3
LOOKUP_TABLE default
-0.144563 0.0622526 0.0150795
-0.151486 0.0212634 0.0437702
-0.153854 -0.0368771 0.0720974
-0.15229 -0.0881402 0.0768865
-0.150236 -0.176494 0.0622396
-0.149169 -0.209226 0.0298863
-0.14623 -0.210686 -0.0070671
-0.136692 -0.225011 -0.0340833
-0.131513 -0.204831 -0.0278388
-0.119559 -0.221104 -0.0462439
-0.10892 -0.252328 -0.0814098
-0.0807238 -0.23972 -0.140869
-0.0529703 -0.217927 -0.182306
-0.0099493 -0.193383 -0.171083
0.00685404 -0.18423 -0.196869
0.0329932 -0.202765 -0.186401
0.0523345 -0.223485 -0.183876
0.0597824 -0.26326 -0.204521
0.0609629 -0.22868 -0.196665
0.0554263 -0.20971 -0.177293
0.0459343 -0.182675 -0.143138
-0.152326 0.089107 0.0437431
-0.16032 0.0519003 0.078854
-0.162867 -0.00507052 0.116428
-0.160836 -0.057005 0.123812
-0.156507 -0.149852 0.11954
-0.154699 -0.183799 0.0878087
-0.152165 -0.185569 0.0475691
-0.142927 -0.20431 0.016369
-0.141058 -0.188937 0.0163006
-0.131181 -0.215332 -0.00571883
-0.123169 -0.259286 -0.0425187
-0.0940136 -0.255577 -0.107125
-0.0662145 -0.239391 -0.151697
-0.0222144 -0.215132 -0.142158
-0.00616999 -0.208781 -0.168766
0.0196034 -0.229091 -0.163256
0.0388344 -0.249627 -0.166853
0.0447522 -0.286884 -0.199997
0.0467524 -0.246755 -0.193139
0.0415654 -0.222198 -0.175107
0.0333282 -0.19078 -0.139466
-0.146804 0.123478 0.0761239
-0.1557 0.0929368 0.118345
-0.159184 0.0393034 0.165866
-0.158149 -0.0112597 0.175746
-0.154627 -0.107804 0.183409
-0.154568 -0.142528 0.152598
-0.154973 -0.14462 0.108958
-0.148512 -0.167887 0.0733707
-0.151811 -0.159194 0.0686277
-0.14602 -0.19695 0.0452873
-0.142027 -0.254986 0.0102972
-0.115548 -0.261995 -0.0556662
-0.0915009 -0.253029 -0.100042
-0.0517356 -0.229648 -0.0914616
-0.0388044 -0.227185 -0.116888
-0.0155797 -0.248758 -0.115445
0.0025541 -0.268011 -0.126165
0.00848954 -0.30129 -0.174509
0.0124129 -0.256397 -0.170138
0.0106516 -0.227526 -0.156307
0.00756795 -0.19375 -0.122421
-0.134472 0.138037 0.0827064
-0.142532 0.111228 0.129612
-0.14556 0.0595789 0.181008
-0.14479 0.00964303 0.194289
-0.140662 -0.0879011 0.208145
-0.141598 -0.122015 0.180528
-0.144926 -0.122903 0.136845
-0.141358 -0.14662 0.0977091
-0.149661 -0.139466 0.0873321
-0.148084 -0.182181 0.0604286
-0.148314 -0.247699 0.0259811
-0.12523 -0.261734 -0.0343711
-0.106554 -0.258641 -0.0736247
-0.0734806 -0.237812 -0.0651578
-0.0666161 -0.239145 -0.0889373
-0.0487982 -0.262313 -0.089003
-0.0344456 -0.281061 -0.101539
-0.0305525 -0.311109 -0.150287
-0.0257259 -0.263704 -0.149705
-0.0243167 -0.231532 -0.139938
-0.0217641 -0.195626 -0.11029
-0.105678 0.200493 0.0683468
-0.114049 0.189736 0.123659
-0.118022 0.149383 0.18776
-0.119358 0.108061 0.204831
-0.116137 0.00452127 0.2223
-0.118894 -0.0315344 0.186172
-0.125117 -0.0353224 0.128569
-0.127422 -0.0652543 0.0877368
-0.134681 -0.0711727 0.0610606
-0.13459 -0.130581 0.0313362
-0.135139 -0.216272 -0.00167675
-0.11853 -0.248235 -0.0586143
-0.107231 -0.25791 -0.0891512
-0.0852639 -0.237483 -0.0623945
-0.0820894 -0.245535 -0.0786225
-0.0693952 -0.2691 -0.069238
-0.0569723 -0.285713 -0.0800988
-0.0487282 -0.309538 -0.137138
-0.0423265 -0.260571 -0.142498
-0.0341641 -0.228088 -0.136479
-0.023842 -0.194567 -0.109138
-0.101634 0.234253 0.0585381
-0.112202 0.233482 0.120067
-0.118623 0.20026 0.192465
-0.122888 0.164343 0.212395
-0.122336 0.0567206 0.231526
-0.128071 0.0197483 0.19144
-0.13775 0.0150568 0.128134
-0.14524 -0.0171854 0.0868014
-0.152207 -0.029544 0.0548467
-0.152621 -0.0978971 0.0252418
-0.152161 -0.195301 -0.00370968
-0.137901 -0.239545 -0.0572083
-0.129833 -0.258565 -0.0813565
-0.112817 -0.239176 -0.0452936
-0.112879 -0.252238 -0.0532121
-0.102986 -0.276163 -0.0355243
-0.091238 -0.291402 -0.0416953
-0.0774899 -0.310428 -0.0981399
-0.0700637 -0.261462 -0.107341
-0.0555417 -0.228788 -0.104831
-0.0379486 -0.196489 -0.082853
-0.109519 0.262747 0.0466473
-0.123659 0.271822 0.112294
-0.13354 0.246416 0.190037
-0.141158 0.216392 0.210858
-0.143627 0.105113 0.231767
-0.152137 0.0674898 0.188341
-0.164434 0.0617496 0.12207
-0.176044 0.027671 0.080571
-0.181063 0.00939404 0.0513117
-0.179795 -0.066628 0.0259358
-0.175881 -0.174356 0.00333788
-0.161048 -0.230639 -0.0489503
-0.153269 -0.258982 -0.0689572
-0.137754 -0.240731 -0.0260577
-0.139162 -0.258973 -0.0242625
-0.13017 -0.283002 0.00261815
-0.117685 -0.29649 0.00316868
-0.0971976 -0.310311 -0.0496408
-0.0897073 -0.262339 -0.0604084
-0.0699332 -0.230507 -0.0598855
-0.046773 -0.20006 -0.0421717
-0.0958953 0.281646 0.0346828
-0.110615 0.299834 0.0967771
-0.121208 0.282923 0.170236
-0.129658 0.25876 0.188045
-0.133301 0.149611 0.206812
-0.143329 0.1132 0.165285
-0.157454 0.10758 0.102096
-0.17037 0.0724739 0.0595109
-0.176662 0.0488717 0.0358512
-0.174805 -0.0338098 0.0148715
-0.169175 -0.150248 -0.00154927
-0.154195 -0.216452 -0.0443078
-0.14757 -0.253804 -0.0555691
-0.136156 -0.238657 -0.00814883
-0.139892 -0.263216 0.0023657
-0.134575 -0.288571 0.0351803
-0.125261 -0.301412 0.0416906
-0.106345 -0.310899 -0.00407187
-0.101817 -0.264913 -0.0123088
-0.0835959 -0.233775 -0.014217
-0.0609963 -0.204036 -0.00286222
-0.103288 0.30383 0.000625466
-0.11868 0.330695 0.0656687
-0.129349 0.320062 0.144627
-0.13905 0.301833 0.163653
-0.139688 0.18504 0.180728
-0.147438 0.145816 0.137028
-0.159045 0.137756 0.0741299
-0.172772 0.0999264 0.0340284
-0.169462 0.0718187 0.0294971
-0.160799 -0.0156324 0.0224283
-0.147214 -0.13819 0.0172513
-0.129521 -0.214664 -0.0367777
-0.120475 -0.258148 -0.0561537
-0.107113 -0.238706 -0.00779653
-0.110211 -0.264654 0.00891162
-0.10423 -0.286377 0.0534112
-0.0940209 -0.295157 0.0720135
-0.0703601 -0.298506 0.0400993
-0.0691533 -0.255316 0.0329475
-0.0514176 -0.226742 0.0337941
-0.0297459 -0.20089 0.0445116
-0.100951 0.31667 -0.0277138
-0.115188 0.35037 0.0340692
-0.124455 0.345758 0.110258
-0.133277 0.332606 0.128321
-0.131666 0.213347 0.140928
-0.137811 0.172901 0.0976825
-0.147955 0.162788 0.0402275
-0.160741 0.123077 0.00535958
-0.154986 0.0909787 0.0243036
-0.143688 0.000217568 0.0304851
-0.126998 -0.126056 0.0341646
-0.107693 -0.208941 -0.0236335
-0.0980023 -0.256286 -0.0463922
-0.0852883 -0.233898 0.00231267
-0.0899995 -0.260716 0.021907
-0.0860595 -0.279611 0.0740325
-0.0783016 -0.285651 0.101498
-0.0562275 -0.284817 0.0787148
-0.0592804 -0.245404 0.0726715
-0.04501 -0.219586 0.0742724
-0.0268223 -0.197002 0.0834832
-0.101519 0.321233 -0.0594107
-0.114067 0.359315 -0.00306956
-0.121461 0.358709 0.0684031
-0.128683 0.34919 0.085817
-0.124552 0.227294 0.0927243
-0.128549 0.185293 0.0512677
-0.136545 0.172687 0.000828986
-0.147204 0.130908 -0.0272122
-0.140171 0.0954576 0.0177146
-0.127027 0.00331179 0.0379205
-0.108364 -0.123552 0.0493632
-0.086984 -0.209456 -0.0118679
-0.0763721 -0.257312 -0.0384829
-0.0636956 -0.229938 0.0103044
-0.0701915 -0.255253 0.0299162
-0.068423 -0.270271 0.0880874
-0.0637277 -0.273187 0.12189
-0.0449053 -0.268435 0.105418
-0.0527983 -0.232575 0.0992117
-0.0432295 -0.209838 0.101069
-0.0297135 -0.190843 0.110132
-0.0967989 0.341982 -0.0888306
-0.105556 0.391365 -0.0439367
-0.108978 0.402534 0.0138263
-0.113579 0.402942 0.0307852
-0.10323 0.287949 0.0212659
-0.102748 0.247856 -0.0198092
-0.106898 0.23187 -0.0658057
-0.112277 0.187567 -0.0853275
-0.105194 0.141675 -0.0394422
-0.0899696 0.044997 -0.0149268
-0.0698573 -0.084199 -0.000861038
-0.0435451 -0.175543 -0.0547695
-0.0298072 -0.227369 -0.076659
-0.0161953 -0.200325 -0.0261113
-0.0240317 -0.227164 -0.00477612
-0.0259453 -0.2413 0.0571305
-0.0268918 -0.244046 0.0958496
-0.0189387 -0.238064 0.087432
-0.0327323 -0.209067 0.0800258
-0.0327373 -0.19218 0.0772119
-0.0283306 -0.17936 0.0794233
-0.0930552 0.351206 -0.10366
-0.0979043 0.408875 -0.0662308
-0.0973307 0.429605 -0.0171456
-0.0990784 0.438548 0.000535872
-0.0837088 0.330848 -0.0157587
-0.0794754 0.29256 -0.053409
-0.0805568 0.273463 -0.0940281
-0.0807922 0.227595 -0.108207
-0.0756754 0.173058 -0.0636956
-0.0599437 0.0745016 -0.0383931
-0.0400508 -0.0535631 -0.0246242
-0.00933763 -0.147169 -0.0756573
0.00737812 -0.20021 -0.0956752
0.0223683 -0.17239 -0.0449453
0.0129021 -0.19866 -0.0221203
0.0077428 -0.210918 0.0415658
0.00137548 -0.213422 0.0828637
-0.00182469 -0.206917 0.0775075
-0.0205737 -0.184707 0.0703662
-0.0296865 -0.173612 0.0628316
-0.0338279 -0.166416 0.0590382
-0.086041 0.35085 -0.0836769
-0.0864109 0.419313 -0.047166
-0.0814833 0.453775 0.000420061
-0.0794306 0.474918 0.0191135
-0.0604154 0.382819 0.01292
-0.0540083 0.349876 -0.01656
-0.0546889 0.328895 -0.0513078
-0.0502818 0.283004 -0.0640342
-0.0557466 0.21919 -0.0303878
-0.0453901 0.12062 -0.0112623
-0.0317477 -0.00336865 -0.00114723
0.00216572 -0.100406 -0.0536073
0.0206387 -0.156573 -0.074754
0.0358748 -0.130976 -0.0285762
0.0231129 -0.15718 -0.00231303
0.0130088 -0.166543 0.0609615
-0.00048075 -0.167316 0.10383
-0.0183765 -0.156467 0.0979689
-0.0407755 -0.142656 0.0943359
-0.0590091 -0.137368 0.0808531
-0.0708135 -0.136751 0.0686175
-0.0831699 0.339354 -0.100049
-0.0796581 0.405053 -0.0627694
-0.0710871 0.437985 -0.010082
-0.0670773 0.458769 0.016676
-0.0455992 0.366148 0.0207872
-0.0367791 0.331474 -0.000381203
-0.0350961 0.308461 -0.0285816
-0.0287938 0.262503 -0.0376419
-0.0319344 0.19852 -0.00187604
-0.0202075 0.104264 0.0145212
-0.00515997 -0.0127314 0.0178825
0.0299117 -0.102821 -0.0403467
0.049808 -0.152071 -0.0664294
0.0666198 -0.121241 -0.0218037
0.0547865 -0.142258 1.25257e-05
0.0454803 -0.147732 0.0586052
0.0320563 -0.146419 0.0947166
0.0120422 -0.136075 0.0789481
-0.0116532 -0.12365 0.0724878
-0.0338686 -0.122197 0.0583989
-0.0503723 -0.125511 0.0494181
-0.0652245 0.317937 -0.119118
-0.0562578 0.381605 -0.0796724
-0.0424582 0.415278 -0.0207706
-0.0351437 0.436891 0.0140038
-0.00889918 0.350352 0.035064
0.00361867 0.316488 0.0274129
0.00827078 0.292106 0.00735297
0.0169665 0.247756 0.00217669
0.0134407 0.184611 0.0246407
0.0241368 0.0971521 0.029255
0.0375649 -0.00953235 0.0210404
0.0718516 -0.0941025 -0.0420299
0.0912024 -0.138862 -0.0728576
0.106339 -0.106286 -0.03215
0.0948165 -0.122433 -0.0192161
0.0843692 -0.122226 0.0309642
0.0695475 -0.116396 0.0595193
0.0441826 -0.101586 0.0403513
0.0202364 -0.0909906 0.0339792
-0.00676688 -0.0918394 0.0215246
-0.0285689 -0.0982864 0.0163642
-0.0590128 0.291451 -0.135514
-0.0471463 0.350054 -0.09409
-0.0299372 0.380936 -0.0281668
-0.020724 0.399706 0.0159267
0.00924994 0.318027 0.0549654
0.0252605 0.28379 0.0608345
0.0332608 0.257992 0.0492621
0.0434242 0.215535 0.0483013
0.042989 0.15595 0.0581089
0.0542078 0.0774401 0.0514309
0.067757 -0.0169987 0.030594
0.100437 -0.0942537 -0.0375772
0.119358 -0.13351 -0.0752288
0.134112 -0.0991739 -0.042736
0.124949 -0.109007 -0.0414811
0.116865 -0.101971 -0.00320052
0.104785 -0.0899225 0.0150725
0.080485 -0.0693474 -0.00853783
0.0593843 -0.0581177 -0.0162619
0.0324006 -0.0590078 -0.0252313
0.00865023 -0.067126 -0.0231387
-0.0861353 0.239988 -0.136656
-0.0766474 0.290394 -0.0968862
-0.0600786 0.316921 -0.0273125
-0.0515619 0.329721 0.0227214
-0.0177352 0.258096 0.0838553
0.00233424 0.225042 0.104693
0.0156428 0.199059 0.103572
0.0262601 0.160173 0.108686
0.0357044 0.108611 0.103731
0.0506863 0.0446139 0.0868571
0.0676244 -0.030923 0.0580371
0.100187 -0.0975589 -0.010628
0.121033 -0.129045 -0.0539961
0.139856 -0.0925062 -0.0389453
0.13572 -0.0935548 -0.0502851
0.134671 -0.0764502 -0.0312821
0.130402 -0.0548754 -0.0264195
0.116323 -0.0242047 -0.056532
0.101407 -0.0111979 -0.0651018
0.0809438 -0.00999957 -0.0688006
0.0609534 -0.0184032 -0.0578606
-0.0966743 0.22678 -0.13522
-0.0892725 0.269117 -0.0922847
-0.0751823 0.287823 -0.0162968
-0.0684697 0.294529 0.0379398
-0.039631 0.219076 0.106776
-0.0212411 0.183157 0.130809
-0.00815904 0.156188 0.130986
0.00189792 0.119881 0.140052
0.0149001 0.0738646 0.134189
0.0307631 0.0184087 0.116304
0.048821 -0.0471608 0.0842474
0.0787582 -0.105247 0.00743017
0.0994921 -0.130419 -0.0440909
0.120161 -0.0924666 -0.0344531
0.120507 -0.0894251 -0.057212
0.12567 -0.0693368 -0.0473581
0.129125 -0.0450758 -0.0531338
0.125851 -0.0133398 -0.0949741
0.117644 0.00230205 -0.106422
0.104285 0.00352812 -0.108199
0.087777 -0.00623615 -0.0906441
-0.111434 0.196103 -0.120106
-0.10768 0.229564 -0.0795731
-0.0975845 0.240739 -0.00541957
-0.0936345 0.240721 0.0469238
-0.0677967 0.167793 0.117502
-0.0498695 0.131335 0.143943
-0.0353392 0.104931 0.14683
-0.0263583 0.072764 0.158688
-0.00548628 0.0345808 0.151745
0.0131638 -0.00878978 0.137127
0.0340467 -0.0593147 0.108657
0.0614791 -0.105999 0.0336337
0.0821242 -0.12312 -0.0207168
0.104802 -0.0839229 -0.0218886
0.109125 -0.0755817 -0.0518682
0.119989 -0.0513435 -0.0556216
0.130808 -0.0233002 -0.0737049
0.139766 0.0108013 -0.123895
0.137254 0.0280528 -0.137258
0.131975 0.0298169 -0.136936
0.121236 0.0188572 -0.114265
-0.115759 0.166113 -0.0972309
-0.115668 0.191188 -0.0599391
-0.110331 0.196075 0.00822868
-0.10956 0.191969 0.0548153
-0.0890195 0.122693 0.119974
-0.0735959 0.08709 0.143283
-0.0597041 0.062014 0.145646
-0.053308 0.0344528 0.15903
-0.0281332 0.00402492 0.154918
-0.00882732 -0.0279206 0.147143
0.0127838 -0.0643667 0.12673
0.0357485 -0.0998154 0.0568857
0.0544853 -0.109392 0.003295
0.0768115 -0.0702274 -0.00552324
0.0838343 -0.0577697 -0.0378315
0.0986286 -0.0312423 -0.0500137
0.114512 -0.00221181 -0.0750141
0.133495 0.0308731 -0.128775
0.135321 0.0474305 -0.143201
0.137634 0.0483318 -0.141667
0.133694 0.036414 -0.117716
-0.165544 0.0567886 0.014199
-0.174155 0.0138608 0.0460641
-0.17615 -0.0477279 0.0771961
-0.172819 -0.108722 0.0805034
-0.167064 -0.204656 0.0633441
-0.16321 -0.247364 0.0258926
-0.15751 -0.258453 -0.0159343
-0.144743 -0.276355 -0.0469519
-0.141496 -0.266625 -0.0371948
-0.130717 -0.286287 -0.0568947
-0.123087 -0.318737 -0.0959248
-0.0934753 -0.298621 -0.159724
-0.0647473 -0.269154 -0.203492
-0.019056 -0.23806 -0.188714
-0.00238602 -0.222794 -0.216183
0.0238566 -0.23595 -0.203027
0.0423384 -0.25051 -0.198732
0.0456664 -0.281836 -0.219371
0.0479911 -0.240397 -0.20892
0.0421301 -0.213942 -0.184415
0.0330104 -0.182651 -0.144441
-0.173396 0.0877983 0.0447139
-0.182771 0.049233 0.0829173
-0.184192 -0.0112673 0.123452
-0.179767 -0.0739315 0.12893
-0.169477 -0.175414 0.122644
-0.163484 -0.220494 0.0856779
-0.157165 -0.232826 0.0404028
-0.144445 -0.255527 0.00494911
-0.144517 -0.251482 0.00957128
-0.13652 -0.281871 -0.0130012
-0.132658 -0.327638 -0.052941
-0.102856 -0.316559 -0.121968
-0.0748948 -0.29281 -0.168794
-0.0290603 -0.262287 -0.155476
-0.0135837 -0.249822 -0.183878
0.0118717 -0.265022 -0.176509
0.0299528 -0.279425 -0.179649
0.0315361 -0.307599 -0.214975
0.0349495 -0.259719 -0.205861
0.0297428 -0.226554 -0.18264
0.022216 -0.190356 -0.140599
-0.166244 0.128692 0.0786462
-0.175986 0.0979226 0.123494
-0.177758 0.0410336 0.17403
-0.174071 -0.0208743 0.181939
-0.163376 -0.126642 0.188629
-0.158631 -0.173267 0.153061
-0.155164 -0.186395 0.104807
-0.145794 -0.213957 0.0652484
-0.151884 -0.217207 0.0666337
-0.149312 -0.259611 0.0440066
-0.150919 -0.320272 0.00725127
-0.124808 -0.320746 -0.0625957
-0.101592 -0.30507 -0.108822
-0.0608653 -0.276544 -0.0965896
-0.0490163 -0.268353 -0.12387
-0.0264752 -0.285391 -0.121998
-0.0096063 -0.298685 -0.134424
-0.00771605 -0.322343 -0.188232
-0.00197026 -0.269084 -0.182802
-0.00294689 -0.230755 -0.164502
-0.00438545 -0.191877 -0.124076
-0.153476 0.149215 0.0835493
-0.162032 0.123303 0.132626
-0.163172 0.0687991 0.187089
-0.159437 0.00741373 0.199072
-0.1483 -0.0995942 0.212726
-0.144702 -0.145837 0.181066
-0.14478 -0.157829 0.133375
-0.139049 -0.185719 0.0907964
-0.151127 -0.1908 0.0865432
-0.153801 -0.238842 0.0610247
-0.160529 -0.308069 0.0258433
-0.138566 -0.316682 -0.0374419
-0.121447 -0.308118 -0.0779465
-0.0878935 -0.283225 -0.0661878
-0.0827362 -0.280084 -0.0919856
-0.0658425 -0.299813 -0.0928871
-0.0526834 -0.313394 -0.108983
-0.0521431 -0.334077 -0.165131
-0.045086 -0.278268 -0.165364
-0.0420022 -0.236387 -0.152519
-0.0368008 -0.195209 -0.116717
-0.124476 0.222387 0.0650032
-0.133041 0.215537 0.121965
-0.134853 0.174726 0.18973
-0.133385 0.122822 0.206188
-0.122911 0.0108736 0.224064
-0.121664 -0.0371163 0.184019
-0.1257 -0.0522439 0.122189
-0.127224 -0.0872153 0.0784831
-0.140011 -0.105346 0.0578268
-0.145688 -0.170711 0.0304052
-0.153945 -0.261004 -0.0020666
-0.138396 -0.289788 -0.0609644
-0.128478 -0.296477 -0.0917481
-0.105604 -0.275206 -0.0608646
-0.103959 -0.27969 -0.0794312
-0.0919469 -0.301035 -0.0723758
-0.0803615 -0.313058 -0.0893372
-0.074409 -0.326684 -0.157405
-0.0653744 -0.269236 -0.165807
-0.0545086 -0.226548 -0.157627
-0.0405343 -0.187855 -0.123556
-0.122876 0.263061 0.0544455
-0.133867 0.26874 0.117853
-0.138477 0.237221 0.194783
-0.140428 0.191923 0.214988
-0.133575 0.0769923 0.235162
-0.136386 0.0286762 0.191383
-0.145221 0.0128857 0.123708
-0.153207 -0.0247946 0.0796572
-0.166782 -0.0491812 0.0533538
-0.173519 -0.124188 0.0263947
-0.180746 -0.227409 -0.00131001
-0.166693 -0.27083 -0.0566464
-0.15901 -0.289353 -0.0809464
-0.139727 -0.271407 -0.0409978
-0.140883 -0.282328 -0.0511485
-0.13094 -0.305229 -0.0368438
-0.119387 -0.316555 -0.0507217
-0.106848 -0.324755 -0.120408
-0.0966488 -0.267765 -0.134325
-0.0787647 -0.224708 -0.130894
-0.0568434 -0.18721 -0.102498
-0.133511 0.295807 0.0441447
-0.148372 0.313978 0.11228
-0.156839 0.29304 0.195539
-0.162841 0.255398 0.217483
-0.159791 0.138321 0.24008
-0.166321 0.0902702 0.19292
-0.178792 0.0737558 0.121998
-0.191802 0.0338998 0.0776708
-0.203724 0.00388573 0.053799
-0.208481 -0.0795967 0.0311588
-0.211333 -0.19451 0.00993905
-0.195054 -0.252573 -0.0450157
-0.186029 -0.282994 -0.0658035
-0.1665 -0.268331 -0.0198818
-0.168445 -0.285915 -0.0200523
-0.158758 -0.309651 0.00295235
-0.145903 -0.319282 -0.00495024
-0.125954 -0.320851 -0.0722719
-0.115837 -0.265321 -0.088762
-0.0926343 -0.222968 -0.0881611
-0.0651619 -0.187377 -0.0643937
-0.116323 0.319462 0.0330546
-0.131795 0.348931 0.0982672
-0.141195 0.338727 0.177956
-0.148288 0.308836 0.197632
-0.147316 0.19476 0.218423
-0.155948 0.148376 0.173427
-0.170676 0.131963 0.105483
-0.185298 0.0907581 0.0596325
-0.197997 0.0543024 0.0407003
-0.201227 -0.0372083 0.0218579
-0.200822 -0.162708 0.00610417
-0.183449 -0.232774 -0.0400626
-0.174745 -0.274061 -0.0529509
-0.159101 -0.263402 -0.00364909
-0.163234 -0.28843 0.00498972
-0.157549 -0.313519 0.0340026
-0.14843 -0.321986 0.0323593
-0.130942 -0.318241 -0.0273787
-0.124576 -0.26509 -0.0414694
-0.103908 -0.223987 -0.0436063
-0.077847 -0.189704 -0.0265941
-0.128963 0.335425 0.000603695
-0.144638 0.376184 0.0696953
-0.153648 0.375317 0.155603
-0.161959 0.354084 0.176795
-0.157396 0.234453 0.194485
-0.163525 0.186878 0.146204
-0.175453 0.169034 0.0776404
-0.19037 0.124654 0.0344843
-0.192456 0.0853988 0.0354901
-0.187335 -0.0108846 0.0312746
-0.177075 -0.143168 0.026809
-0.154198 -0.226264 -0.0327131
-0.140651 -0.276169 -0.0554608
-0.120365 -0.262045 -0.00619674
-0.123745 -0.289752 0.00901901
-0.11706 -0.310482 0.050804
-0.107332 -0.313212 0.0624022
-0.0859722 -0.298467 0.0171948
-0.0840269 -0.248984 0.00435004
-0.0653351 -0.209349 0.00487223
-0.0417305 -0.178594 0.0208011
-0.128366 0.344389 -0.0275661
-0.142492 0.393801 0.0386591
-0.14974 0.401045 0.121869
-0.156721 0.38672 0.142377
-0.149749 0.265719 0.154461
-0.153844 0.217605 0.106135
-0.16383 0.197805 0.0429346
-0.177043 0.150914 0.0054864
-0.175773 0.108104 0.0311587
-0.166735 0.00824745 0.0406439
-0.151979 -0.128218 0.0446939
-0.126126 -0.219284 -0.0200624
-0.111023 -0.274154 -0.0474924
-0.0906734 -0.256647 0.00149279
-0.0964815 -0.285241 0.0198244
-0.0926235 -0.30166 0.0704751
-0.0863604 -0.299733 0.092511
-0.0678799 -0.277381 0.0577041
-0.0713729 -0.23219 0.0462786
-0.0573747 -0.195084 0.0474115
-0.0382566 -0.168002 0.0611906
-0.130105 0.343275 -0.0602121
-0.142172 0.39833 0.000615648
-0.147171 0.411074 0.0788299
-0.151852 0.401676 0.0988455
-0.142066 0.278739 0.103909
-0.143261 0.229411 0.0569587
-0.150168 0.206936 0.00094561
-0.160209 0.157175 -0.0289466
-0.156948 0.111634 0.0243232
-0.145093 0.0106085 0.0484338
-0.12752 -0.126168 0.0599147
-0.098847 -0.220935 -0.00939274
-0.0826746 -0.276448 -0.0416569
-0.062589 -0.252552 0.00744429
-0.0716082 -0.278974 0.0260295
-0.0712355 -0.289431 0.0841782
-0.0694171 -0.28206 0.114074
-0.0557955 -0.252211 0.0867952
-0.0652781 -0.211025 0.0754183
-0.0571161 -0.176892 0.0766147
-0.0433998 -0.154025 0.0896248
-0.116673 0.367637 -0.0921389
-0.123713 0.434613 -0.0432195
-0.123495 0.459623 0.0204521
-0.124571 0.460601 0.0401117
-0.106714 0.344273 0.0270937
-0.101751 0.296471 -0.0196953
-0.103044 0.270029 -0.0710726
-0.106026 0.217173 -0.0919108
-0.101186 0.161313 -0.0380485
-0.0862282 0.0565006 -0.00997842
-0.0667131 -0.0812666 0.00339486
-0.0338258 -0.180798 -0.0587639
-0.0159416 -0.239132 -0.0863885
0.00228865 -0.214451 -0.0347397
-0.00980995 -0.240195 -0.0140416
-0.015841 -0.248142 0.049418
-0.0222718 -0.239418 0.0858342
-0.0229578 -0.208748 0.0684439
-0.0396859 -0.174829 0.0559539
-0.0431493 -0.148604 0.0519655
-0.0401899 -0.134399 0.0572692
-0.104977 0.377465 -0.108202
-0.106982 0.452692 -0.0667205
-0.10158 0.487228 -0.0119198
-0.098855 0.496901 0.00872496
-0.0742114 0.387482 -0.0113978
-0.0638507 0.341225 -0.054518
-0.060274 0.311449 -0.100141
-0.0563198 0.256889 -0.115521
-0.0523707 0.193193 -0.0635837
-0.0363517 0.088009 -0.0353663
-0.0172041 -0.0464614 -0.0230811
0.018803 -0.146805 -0.0825573
0.0377496 -0.204518 -0.108108
0.0541243 -0.17752 -0.0550143
0.0384057 -0.200296 -0.0320732
0.0264661 -0.204726 0.0347495
0.012155 -0.194862 0.0752156
-0.0027593 -0.164407 0.0621693
-0.025494 -0.138037 0.0500546
-0.0396535 -0.119894 0.0406255
-0.0464023 -0.113802 0.0387862
-0.0902444 0.376525 -0.0856454
-0.0864292 0.461998 -0.0440523
-0.0751837 0.509838 0.010005
-0.0677219 0.53204 0.0318746
-0.0371857 0.438075 0.0234745
-0.0228132 0.397665 -0.0106709
-0.0171406 0.366882 -0.0499726
-0.00688344 0.312774 -0.064428
-0.0127651 0.242049 -0.0248577
-0.00216068 0.139212 -0.00409761
0.00984777 0.0117103 0.0038436
0.0468902 -0.0905683 -0.057378
0.0648295 -0.1497 -0.0836346
0.0773412 -0.123765 -0.0335404
0.056076 -0.144395 -0.0060254
0.0364367 -0.144988 0.0620947
0.0128175 -0.133279 0.105715
-0.0190012 -0.100292 0.0930989
-0.0462731 -0.0834857 0.0850246
-0.0705147 -0.0738907 0.0683921
-0.0855542 -0.07702 0.0560585
-0.0865661 0.35809 -0.104628
-0.0786862 0.439352 -0.0617962
-0.0634834 0.484743 -0.00155106
-0.0534306 0.506002 0.0295258
-0.020017 0.411119 0.0329874
-0.00233192 0.368703 0.00832353
0.00681507 0.335981 -0.0235954
0.0201648 0.2821 -0.0343298
0.0168663 0.212476 0.00731297
0.028909 0.115989 0.0246405
0.0419315 -0.00183421 0.0248725
0.0793327 -0.0946776 -0.042305
0.0974946 -0.144379 -0.0731775
0.110039 -0.111039 -0.0234737
0.0883924 -0.124322 0.000334224
0.068261 -0.119346 0.0647147
0.0437349 -0.104549 0.102162
0.0089015 -0.0718563 0.0800302
-0.0200882 -0.0570741 0.0690705
-0.0487326 -0.0525936 0.051771
-0.0685662 -0.0609084 0.0421795
-0.0655366 0.328382 -0.1278
-0.0517422 0.405687 -0.0825553
-0.0307641 0.450532 -0.0153373
-0.0169775 0.472453 0.0246031
0.0222076 0.383561 0.0469242
0.0446723 0.342647 0.0370957
0.058025 0.309691 0.0140169
0.0749461 0.258362 0.00721926
0.0720009 0.192092 0.0340106
0.0831069 0.104692 0.0381862
0.0939826 -0.000340969 0.0258215
0.129337 -0.0861541 -0.046067
0.145473 -0.129899 -0.0811661
0.154313 -0.0935892 -0.0340622
0.132061 -0.100989 -0.0190112
0.109815 -0.0894622 0.0377889
0.0832649 -0.06994 0.0684109
0.0427339 -0.0330436 0.0439193
0.0132117 -0.0208251 0.0333091
-0.0205784 -0.0196045 0.0179576
-0.046066 -0.0317193 0.012146
-0.0573696 0.292584 -0.147541
-0.0406102 0.362612 -0.100617
-0.0160888 0.40306 -0.0260922
-0.00049681 0.421894 0.0236889
0.0431986 0.33796 0.0656996
0.069868 0.297623 0.0705903
0.0874948 0.264769 0.0566859
0.106563 0.216319 0.0542034
0.107853 0.156285 0.0672094
0.119895 0.0798661 0.0591965
0.130895 -0.0109853 0.0335714
0.163861 -0.0885864 -0.0431595
0.178856 -0.126159 -0.0847779
0.186257 -0.0876013 -0.045577
0.166414 -0.0884279 -0.042468
0.146561 -0.0698151 0.00242767
0.122998 -0.0442096 0.0228828
0.0840775 -0.00158763 -0.00541714
0.0575659 0.010931 -0.0169425
0.0238208 0.0121155 -0.0279457
-0.00400005 -0.00135146 -0.0258056
-0.0876625 0.227122 -0.148564
-0.0740481 0.286234 -0.104471
-0.0509625 0.320474 -0.0268288
-0.0369446 0.333598 0.0286967
0.0104886 0.260551 0.0945863
0.0412078 0.223592 0.115683
0.0644338 0.193457 0.113245
0.0841209 0.149893 0.117397
0.0967741 0.102179 0.114754
0.113276 0.0423398 0.0966093
0.12824 -0.0282288 0.0637245
0.160917 -0.095503 -0.0127566
0.178019 -0.125912 -0.0600805
0.189786 -0.0852761 -0.0400295
0.176029 -0.0786564 -0.049997
0.164729 -0.0505922 -0.0261643
0.150712 -0.0160237 -0.0202445
0.124475 0.037199 -0.0556766
0.104898 0.0511031 -0.0676693
0.0785431 0.055402 -0.0726075
0.0546034 0.0433704 -0.0605218
-0.0989483 0.209369 -0.147172
-0.0880639 0.258863 -0.100214
-0.0683275 0.284145 -0.0164618
-0.0571214 0.290891 0.0427276
-0.0154205 0.21436 0.116717
0.0128832 0.175191 0.141274
0.0352281 0.144931 0.140384
0.0536482 0.10495 0.148697
0.0699573 0.0638161 0.145588
0.0873822 0.0134748 0.126521
0.103799 -0.0462701 0.0905252
0.134248 -0.10461 0.00571152
0.15213 -0.128808 -0.0500168
0.166895 -0.0875862 -0.0356691
0.159202 -0.0774258 -0.0578193
0.155735 -0.046942 -0.0437734
0.151093 -0.0102201 -0.048975
0.13749 0.0436065 -0.0964534
0.125643 0.0603915 -0.11056
0.107207 0.0653216 -0.11258
0.0868345 0.0526231 -0.0929379
-0.117037 0.172422 -0.129637
-0.11071 0.211362 -0.0862083
-0.0961777 0.227938 -0.00562456
-0.0891071 0.228178 0.0505439
-0.0522792 0.155196 0.125666
-0.0261236 0.117105 0.152648
-0.00384168 0.0894291 0.15491
0.0121664 0.0547266 0.166642
0.0358548 0.0235433 0.163021
0.0557914 -0.0138221 0.148373
0.0753212 -0.0580864 0.11748
0.103881 -0.105521 0.0353745
0.122923 -0.122642 -0.0230472
0.141634 -0.0814031 -0.0209664
0.139858 -0.0675845 -0.0509906
0.144454 -0.0344357 -0.052294
0.149588 0.00476716 -0.0711061
0.151214 0.0600354 -0.127851
0.14638 0.0783653 -0.143443
0.137479 0.0849228 -0.143142
0.123608 0.0725926 -0.117872
-0.124597 0.138533 -0.103372
-0.122767 0.167887 -0.0642641
-0.114264 0.17743 0.00869847
-0.111615 0.174017 0.0578014
-0.0824805 0.105948 0.12613
-0.0609225 0.0703744 0.149536
-0.0413793 0.0457744 0.151422
-0.0297255 0.0166545 0.165364
-0.00303307 -0.00516767 0.165321
0.0167648 -0.0306472 0.158993
0.0368966 -0.0607369 0.138027
0.0614247 -0.0974992 0.0625757
0.0797261 -0.108073 0.00553248
0.100209 -0.068272 -0.00129911
0.103105 -0.0520038 -0.0339702
0.114054 -0.0183135 -0.045118
0.126568 0.0200438 -0.0717824
0.14111 0.0725141 -0.132689
0.141699 0.089823 -0.149076
0.141879 0.0961499 -0.147689
0.135825 0.0842529 -0.121306
-0.175104 0.0625508 0.0163544
-0.18573 0.0221431 0.0505712
-0.18818 -0.0393397 0.0833058
-0.183424 -0.110852 0.0841449
-0.175488 -0.210726 0.0640694
-0.169409 -0.263308 0.0216903
-0.161872 -0.284154 -0.0242709
-0.14645 -0.307951 -0.0593735
-0.147786 -0.304962 -0.045685
-0.141305 -0.323325 -0.0665941
-0.140514 -0.350031 -0.109388
-0.114377 -0.319857 -0.176809
-0.0894422 -0.280825 -0.222386
-0.0469288 -0.243013 -0.204498
-0.0340342 -0.220759 -0.23323
-0.0112545 -0.230536 -0.217351
0.00392687 -0.241281 -0.210772
0.00252805 -0.265313 -0.23096
0.00685303 -0.218503 -0.217107
0.00290436 -0.185415 -0.187568
-0.00212596 -0.151629 -0.142386
-0.185576 0.0975677 0.0480971
-0.197041 0.0624314 0.0877396
-0.198624 0.00213335 0.128945
-0.19232 -0.0723506 0.130838
-0.178442 -0.179203 0.121454
-0.169325 -0.235864 0.0792332
-0.160581 -0.259387 0.0298384
-0.145106 -0.288494 -0.00963482
-0.15034 -0.291561 0.000449482
-0.147741 -0.320096 -0.0221436
-0.152219 -0.359073 -0.064661
-0.126952 -0.336569 -0.13682
-0.103642 -0.302096 -0.184901
-0.0616232 -0.264218 -0.167979
-0.0503448 -0.244709 -0.197624
-0.0285895 -0.257193 -0.18831
-0.0138507 -0.268578 -0.19038
-0.0165236 -0.289709 -0.227355
-0.0105724 -0.236413 -0.215152
-0.0129465 -0.19622 -0.186906
-0.015343 -0.157522 -0.139041
-0.179118 0.143694 0.081933
-0.190636 0.117436 0.12661
-0.192125 0.0609426 0.176591
-0.186214 -0.0138825 0.180121
-0.170884 -0.126195 0.184114
-0.162611 -0.185861 0.14365
-0.156672 -0.211189 0.0919981
-0.145125 -0.245503 0.0493695
-0.15736 -0.256012 0.0581593
-0.161543 -0.295997 0.0374031
-0.172871 -0.348961 2.99149e-05
-0.15205 -0.33708 -0.0718252
-0.13385 -0.309993 -0.118436
-0.0969527 -0.274049 -0.102484
-0.0892126 -0.258958 -0.131013
-0.0701353 -0.274226 -0.128735
-0.0562599 -0.285632 -0.142395
-0.0579313 -0.302845 -0.201204
-0.0491549 -0.244516 -0.193971
-0.0465801 -0.199057 -0.171324
-0.0422697 -0.157664 -0.124618
-0.166196 0.168764 0.0831887
-0.176127 0.148258 0.130861
-0.176631 0.0943774 0.184183
-0.170198 0.019874 0.192199
-0.154089 -0.0942919 0.203891
-0.146907 -0.154146 0.168307
-0.144815 -0.178694 0.118209
-0.137656 -0.213204 0.0737912
-0.156561 -0.225579 0.0775138
-0.166684 -0.271187 0.0551301
-0.183546 -0.332799 0.020839
-0.167032 -0.328977 -0.0432077
-0.154702 -0.30918 -0.0833888
-0.124322 -0.277163 -0.0682891
-0.122662 -0.268304 -0.0957874
-0.108506 -0.287658 -0.097959
-0.097682 -0.300811 -0.117725
-0.0999603 -0.316068 -0.181269
-0.0895767 -0.256016 -0.182038
-0.082736 -0.207192 -0.166313
-0.0719472 -0.163333 -0.124247
-0.137138 0.248276 0.0591436
-0.146486 0.248942 0.11333
-0.147117 0.210313 0.179765
-0.142984 0.145133 0.192841
-0.126929 0.0263371 0.209143