# vtk DataFile Version 2.0
Func
ASCII
DATASET RECTILINEAR_GRID
DIMENSIONS 31 31 31
X_COORDINATES 31 double
-9.67742
-9.03226
-8.3871
-7.74194
-7.09677
-6.45161
-5.80645
-5.16129
-4.51613
-3.87097
-3.22581
-2.58065
-1.93548
-1.29032
-0.645161
0
0.645161
1.29032
1.93548
2.58065
3.22581
3.87097
4.51613
5.16129
5.80645
6.45161
7.09677
7.74194
8.3871
9.03226
9.67742
Y_COORDINATES 31 double
-9.67742
-9.03226
-8.3871
-7.74194
-7.09677
-6.45161
-5.80645
-5.16129
-4.51613
-3.87097
-3.22581
-2.58065
-1.93548
-1.29032
-0.645161
0
0.645161
1.29032
1.93548
2.58065
3.22581
3.87097
4.51613
5.16129
5.80645
6.45161
7.09677
7.74194
8.3871
9.03226
9.67742
Z_COORDINATES 31 double
-9.67742
-9.03226
-8.3871
-7.74194
-7.09677
-6.45161
-5.80645
-5.16129
-4.51613
-3.87097
-3.22581
-2.58065
-1.93548
-1.29032
-0.645161
0
0.645161
1.29032
1.93548
2.58065
3.22581
3.87097
4.51613
5.16129
5.80645
6.45161
7.09677
7.74194
8.3871
9.03226
9.67742
POINT_DATA 29791
SCALARS data double 1
LOOKUP_TABLE default
-0.0147112
-0.0215665
-0.0291237
-0.0374732
-0.0461549
-0.0546278
-0.0622549
-0.0683432
-0.0724096
-0.0740183
-0.0729318
-0.069172
-0.0630366
-0.0550829
-0.0460733
-0.0368929
-0.0284495
-0.0215657
-0.0168777
-0.01475
-0.0152255
-0.0180165
-0.0225449
-0.0280119
-0.0335103
-0.0377992
-0.0401551
-0.0400403
-0.0374933
-0.0326485
-0.0261719
-0.0140869
-0.0220831
-0.0315079
-0.0427123
-0.0550694
-0.0678713
-0.0801071
-0.0905745
-0.0982906
-0.10239
-0.102301
-0.097862
-0.0893624
-0.0775367
-0.063491
-0.048579
-0.0342472
-0.0218625
-0.0125474
-0.00703503
-0.00558093
-0.00793257
-0.0133741
-0.0208224
-0.0289824
-0.0360552
-0.0409958
-0.0429332
-0.0416588
-0.0372908
-0.0304319
-0.00470153
-0.010949
-0.0195442
-0.0312063
-0.0453321
-0.0612377
-0.0775529
-0.0926323
-0.104858
-0.112846
-0.115557
-0.112475
-0.10369
-0.0899123
-0.0724026
-0.0528217
-0.0330367
-0.0148987
-2.25633e-05
0.0104115
0.0157907
0.016129
0.0120399
0.00463555
-0.00464326
-0.0138008
-0.0214858
-0.0266585
-0.0287117
-0.0275576
-0.0235634
0.0128991
0.0113594
0.00655133
-0.00269858
-0.0160104
-0.0328798
-0.051792
-0.0707756
-0.0875701
-0.100281
-0.107349
-0.107779
-0.101274
-0.088289
-0.0699732
-0.0480322
-0.0245175
-0.00158267
0.0187682
0.0349139
0.0457881
0.0509757
0.050721
0.0458529
0.0376326
0.0277929
0.0177454
0.00875571
0.00176955
-0.00275907
-0.004763
0.0333882
0.0381417
0.0389386
0.0341984
0.0239614
0.00838655
-0.0110394
-0.0322394
-0.0524873
-0.069526
-0.0813592
-0.0865189
-0.0842364
-0.0745392
-0.0582321
-0.0367863
-0.0121496
0.0134846
0.037929
0.0592416
0.0759212
0.0870381
0.0922875
0.0919637
0.0868575
0.078053
0.0668042
0.0543895
0.0421014
0.0307917
0.021081
0.0490095
0.0592157
0.0652709
0.065383
0.0592551
0.0466795
0.028931
0.00794059
-0.0134497
-0.0328976
-0.0482119
-0.0576225
-0.05997
-0.0548355
-0.0425606
-0.0241835
-0.0012943
0.0241524
0.0500551
0.07438
0.095356
0.111624
0.122332
0.127164
0.126304
0.120003
0.10918
0.0949672
0.0788437
0.0619752
0.0454553
0.0529495
0.0655682
0.0745656
0.0782191
0.0760194
0.0674881
0.0535374
0.0356901
0.0164259
-0.00220345
-0.0181775
-0.0297389
-0.0355696
-0.0349281
-0.027702
-0.0143943
0.00395721
0.0258995
0.0497177
0.0735952
0.0957764
0.114711
0.129176
0.138342
0.141809
0.139031
0.130479
0.116985
0.0999757
0.0807237
0.0606228
0.0413667
0.0520382
0.0603711
0.0650614
0.0655927
0.0614008
0.0529357
0.0410877
0.0274676
0.0134435
0.00045502
-0.0101371
-0.0171778
-0.019831
-0.0176471
-0.0105937
0.00095293
0.0162455
0.0342328
0.0536392
0.073068
0.0911109
0.106464
0.118022
0.124962
0.126159
0.121605
0.111707
0.097565
0.0802903
0.0612737
0.0151718
0.0196317
0.0236563
0.0266727
0.0283712
0.0283089
0.0264263
0.0228275
0.0178398
0.0118265
0.00529461
-0.00114027
-0.00679922
-0.0110003
-0.013121
-0.0126627
-0.00931205
-0.00299077
0.00611334
0.0175298
0.0305255
0.0441553
0.0573455
0.0689881
0.0780519
0.0831335
0.0837615
0.079855
0.0719513
0.0607499
0.0473415
-0.0204291
-0.0250486
-0.0278835
-0.0285723
-0.0270637
-0.0235142
-0.018481
-0.0126988
-0.00733479
-0.00319578
-0.000905694
-0.000808653
-0.00291533
-0.00689048
-0.0120952
-0.0176723
-0.0226699
-0.0261732
-0.0274342
-0.0259876
-0.0217239
-0.0149129
-0.00617147
0.00361065
0.0133902
0.0217513
0.0278274
0.0310393
0.0312509
0.0285939
0.0236587
-0.0576441
-0.0720128
-0.082453
-0.0876216
-0.0870565
-0.0805469
-0.0690829
-0.0541752
-0.0384356
-0.023804
-0.0120249
-0.0044227
-0.00175032
-0.00410056
-0.0109216
-0.0211135
-0.0332011
-0.0455362
-0.0565139
-0.0647776
-0.0693802
-0.0698815
-0.0663712
-0.0594232
-0.0499795
-0.0393233
-0.0286263
-0.0189024
-0.0109162
-0.00510532
-0.00141063
-0.0887581
-0.111345
-0.128315
-0.137451
-0.137938
-0.129213
-0.112587
-0.0901746
-0.0657357
-0.0421091
-0.0219422
-0.00736276
0.000250947
0.000421354
-0.00642039
-0.0190367
-0.0355926
-0.0539095
-0.0717469
-0.0870758
-0.0983076
-0.10445
-0.105171
-0.100781
-0.0921174
-0.0803407
-0.0668315
-0.052915
-0.0397777
-0.0282664
-0.0186902
-0.108632
-0.136462
-0.157706
-0.169497
-0.170794
-0.160771
-0.140908
-0.113678
-0.083515
-0.0537841
-0.0276679
-0.00777551
0.00413289
0.00733376
0.00216092
-0.0101018
-0.0274516
-0.0474515
-0.0675493
-0.0853915
-0.0990888
-0.107403
-0.10983
-0.106589
-0.0985013
-0.0867497
-0.0728301
-0.0582142
-0.0441874
-0.0317253
-0.0211836
-0.116074
-0.145889
-0.168954
-0.182025
-0.183982
-0.173845
-0.153098
-0.124281
-0.0919826
-0.0596665
-0.0306268
-0.00757683
0.00763399
0.0142137
0.0124469
0.00358152
-0.0104119
-0.0271334
-0.0440825
-0.0589796
-0.0700356
-0.0761366
-0.0769175
-0.0727352
-0.0645319
-0.0537182
-0.0418205
-0.0302794
-0.020119
-0.0121169
-0.00627821
-0.113613
-0.142944
-0.166065
-0.179613
-0.182495
-0.173674
-0.154467
-0.127213
-0.0961961
-0.0645976
-0.035444
-0.0112166
0.00640436
0.016713
0.019983
0.0173474
0.0105611
0.00171734
-0.00706369
-0.0139369
-0.0175742
-0.0173193
-0.0132241
-0.00599106
0.00319549
0.012517
0.0204904
0.0258653
0.0281887
0.0271641
0.0235026
-0.105847
-0.133557
-0.156059
-0.17007
-0.17456
-0.168489
-0.152874
-0.129638
-0.102462
-0.0739821
-0.0467009
-0.022648
-0.00317144
0.0111964
0.0207242
0.0263571
0.0294919
0.0317187
0.0345473
0.0391446
0.0461415
0.0555274
0.0666665
0.0783956
0.0892315
0.0968663
0.0999213
0.0974508
0.0897571
0.077191
0.0614157
-0.0971476
-0.123272
-0.145346
-0.160291
-0.167126
-0.164817
-0.154004
-0.136084
-0.114018
-0.0897945
-0.0652956
-0.0420253
-0.0209564
-0.00244033
0.0137599
0.0283451
0.0422758
0.0565493
0.0719744
0.0889592
0.107375
0.126507
0.145123
0.161611
0.174221
0.18021
0.17835
0.16805
0.150388
0.126376
0.0986673
-0.0897757
-0.114795
-0.136798
-0.152984
-0.162379
-0.163951
-0.157966
-0.145294
-0.128233
-0.108165
-0.0864034
-0.0639865
-0.0415703
-0.0193785
0.00275263
0.0252568
0.0486593
0.0733937
0.0996256
0.127092
0.155018
0.182113
0.20669
0.226819
0.240601
0.245032
0.239063
0.222441
0.196882
0.16392
0.127037
-0.08321
-0.107172
-0.128851
-0.145766
-0.156932
-0.161334
-0.158949
-0.150228
-0.136952
-0.120054
-0.100432
-0.0787948
-0.0555983
-0.031014
-0.00498004
0.022696
0.0521853
0.0834917
0.116319
0.149952
0.183214
0.214497
0.241894
0.263375
0.27705
0.279908
0.271082
0.25058
0.220507
0.182676
0.141063
-0.0749485
-0.0969131
-0.116978
-0.133016
-0.144072
-0.149202
-0.14824
-0.141397
-0.130117
-0.115076
-0.0969426
-0.0762601
-0.0533967
-0.0285302
-0.00169222
0.0271447
0.057942
0.090478
0.124247
0.158369
0.191571
0.222223
0.248478
0.26843
0.280366
0.281514
0.271175
0.249505
0.218693
0.180554
0.139141
-0.0623236
-0.0804373
-0.0967515
-0.109535
-0.117956
-0.121229
-0.119217
-0.112099
-0.101116
-0.0868685
-0.0699558
-0.0508772
-0.029988
-0.00748535
0.0165568
0.0421166
0.0691201
0.097344
0.126332
0.15532
0.183218
0.208644
0.230042
0.245814
0.25454
0.253878
0.243257
0.222856
0.194663
0.160249
0.123329
-0.0443968
-0.0565924
-0.0669482
-0.0741631
-0.0776441
-0.0768635
-0.0718651
-0.0629647
-0.0512739
-0.0374356
-0.0220734
-0.00569992
0.0113282
0.0288295
0.0467706
0.0652071
0.0841933
0.103695
0.12351
0.143195
0.162039
0.17908
0.193186
0.203165
0.207933
0.20566
0.195854
0.178602
0.155478
0.127643
0.098155
-0.022967
-0.0279582
-0.0310843
-0.0314837
-0.0288942
-0.0231049
-0.0144308
-0.00342108
0.00893091
0.0219021
0.0348281
0.0471923
0.0586746
0.0691741
0.0787861
0.0877482
0.0963579
0.104886
0.113491
0.122146
0.130589
0.138323
0.144661
0.148805
0.149974
0.146829
0.138893
0.126085
0.109449
0.0896709
0.0689779
-0.00215634
-0.000226995
0.00345751
0.00935561
0.0173765
0.0274213
0.0389008
0.0510311
0.0629603
0.0739188
0.0832456
0.0904751
0.0953862
0.0980238
0.0986754
0.0978153
0.0960246
0.0939
0.0919618
0.0905694
0.0898626
0.0897361
0.0898635
0.0897456
0.0888114
0.0861101
0.0811216
0.0735585
0.063927
0.0524631
0.0405478
0.013282
0.0201167
0.0284131
0.0383087
0.0494234
0.0614307
0.0735451
0.0848337
0.0946121
0.102142
0.106839
0.108357
0.106629
0.101885
0.0946197
0.0855366
0.0754632
0.0652558
0.055701
0.047427
0.040836
0.0360673
0.0330047
0.0313102
0.0305036
0.0298807
0.0288417
0.0268993
0.0240897
0.0202959
0.0161682
0.0200405
0.0286229
0.0382057
0.04873
0.0596542
0.0705584
0.08059
0.0888028
0.0946894
0.0976285
0.0971855
0.0931816
0.0857299
0.0752408
0.0623854
0.048029
0.033149
0.0187367
0.0056974
-0.00523666
-0.013574
-0.0191022
-0.021887
-0.0222413
-0.020659
-0.0177298
-0.0141444
-0.0105469
-0.00725119
-0.00460169
-0.00248108
0.0179331
0.0250727
0.0327065
0.0406706
0.0484146
0.0555616
0.0613298
0.0648936
0.0659107
0.0639386
0.0587299
0.0502861
0.0388816
0.0250592
0.00958737
-0.00660934
-0.0225301
-0.0371927
-0.0497262
-0.059451
-0.0659376
-0.0690387
-0.0688857
-0.0658556
-0.06051
-0.0534076
-0.0453058
-0.0369338
-0.0288151
-0.0213956
-0.0148733
0.00999984
0.0137503
0.017479
0.021048
0.0240109
0.0261283
0.0267869
0.0253759
0.0216911
0.0154931
0.00672089
-0.00446962
-0.0176936
-0.03235
-0.047667
-0.0627689
-0.0767497
-0.0887568
-0.0980712
-0.104173
-0.106786
-0.1059
-0.10176
-0.094829
-0.0857311
-0.0750193
-0.0634633
-0.0517928
-0.0406087
-0.0303575
-0.021366
0.00113611
0.00145802
0.00128835
0.00064077
-0.000773512
-0.00303866
-0.0065548
-0.0116961
-0.0185577
-0.0271991
-0.0375371
-0.0493212
-0.0621316
-0.0753959
-0.0884325
-0.100508
-0.110899
-0.118958
-0.124178
-0.126235
-0.125024
-0.120663
-0.11348
-0.103976
-0.092772
-0.0803814
-0.0675049
-0.0547984
-0.0428147
-0.0319345
-0.0224716
-0.00432665
-0.00606614
-0.00854589
-0.0116199
-0.0154445
-0.0199809
-0.0254663
-0.0320611
-0.0397815
-0.0485666
-0.0582572
-0.0685817
-0.0791604
-0.0895235
-0.099146
-0.107491
-0.114056
-0.118419
-0.120278
-0.119485
-0.116057
-0.110179
-0.102187
-0.0925344
-0.0817504
-0.070257
-0.0586158
-0.0473101
-0.0367907
-0.0273305
-0.0191682
-0.0050931
-0.00709766
-0.00988334
-0.0131633
-0.0170606
-0.0215222
-0.0266228
-0.0324094
-0.0388423
-0.045812
-0.0531528
-0.0606352
-0.067974
-0.0748435
-0.0809015
-0.0858162
-0.0892948
-0.09111
-0.0911224
-0.0892952
-0.0856997
-0.080511
-0.073994
-0.0664806
-0.0583402
-0.0498639
-0.0414118
-0.0332871
-0.025799
-0.0191081
-0.0133692
-0.021505
-0.0316414
-0.0430539
-0.0557171
-0.0689082
-0.0817786
-0.0932239
-0.102056
-0.107429
-0.10859
-0.10513
-0.0970854
-0.0849665
-0.0697351
-0.0527134
-0.0354433
-0.0195166
-0.00638954
0.00278991
0.0073317
0.00708889
0.00247927
-0.00557549
-0.0157637
-0.0265665
-0.0359409
-0.0426608
-0.0457715
-0.045074
-0.040676
-0.0334816
-0.0194681
-0.0309808
-0.0449271
-0.0616246
-0.0801199
-0.099314
-0.117507
-0.132701
-0.143252
-0.147727
-0.145195
-0.135408
-0.118877
-0.096859
-0.0712389
-0.0443221
-0.0185751
0.00366143
0.0204494
0.030497
0.0333067
0.0292293
0.0194002
0.00558336
-0.0100797
-0.0246554
-0.0364204
-0.0438793
-0.0463489
-0.0438118
-0.0371152
-0.00380775
-0.0122489
-0.0245715
-0.0416597
-0.0626084
-0.0863281
-0.110569
-0.13267
-0.149961
-0.160196
-0.161715
-0.153721
-0.13642
-0.111046
-0.0797397
-0.0453034
-0.0108784
0.0204231
0.0458825
0.0635029
0.0722285
0.0720436
0.0639361
0.0497334
0.0318248
0.0134548
-0.003135
-0.0161552
-0.0243036
-0.0272113
-0.0253876
0.0245312
0.0236598
0.017458
0.00428558
-0.0153017
-0.0404279
-0.0686618
-0.0968742
-0.121349
-0.139044
-0.147481
-0.14512
-0.131566
-0.107655
-0.0753635
-0.0375671
0.00230226
0.0406619
0.0741933
0.100225
0.117016
0.123907
0.121343
0.110742
0.094242
0.0746915
0.0544884
0.0358087
0.0203803
0.00910688
0.00211096
0.0574813
0.0665974
0.0693196
0.0632598
0.0484431
0.0252716
-0.00391885
-0.0358801
-0.0661231
-0.0910346
-0.10745
-0.113082
-0.106796
-0.0887574
-0.0603942
-0.0242093
0.0165401
0.0582279
0.0972741
0.130538
0.155637
0.171154
0.176722
0.172966
0.161323
0.143652
0.122175
0.0991128
0.07657
0.0560091
0.0383484
0.0830485
0.100872
0.112005
0.113582
0.105099
0.0864295
0.059532
0.0273978
-0.00525726
-0.0346764
-0.0573754
-0.0705812
-0.072535
-0.0626904
-0.0417377
-0.0114873
0.0253824
0.0656429
0.10588
0.142847
0.173786
0.19666
0.210299
0.21442
0.209551
0.196283
0.176383
0.151851
0.124904
0.0974092
0.0709529
0.0907538
0.112685
0.128732
0.135995
0.133632
0.121079
0.0997047
0.0718686
0.0417559
0.0126904
-0.0120848
-0.0297897
-0.0383911
-0.0368137
-0.0250144
-0.00394394
0.0246067
0.0582197
0.0941156
0.129422
0.161444
0.187891
0.207051
0.217882
0.220027
0.212872
0.197522
0.175501
0.148791
0.119349
0.0891248
0.0745662
0.0939498
0.109407
0.118564
0.120555
0.114604
0.101366
0.0822646
0.0601519
0.0373164
0.0161325
-0.00120086
-0.0128677
-0.0176127
-0.014839
-0.00463832
0.0122519
0.0345347
0.0604853
0.0880966
0.115256
0.13992
0.160278
0.174876
0.182714
0.18232
0.174054
0.158747
0.137796
0.11285
0.0857387
0.0357596
0.0460476
0.0553134
0.0622201
0.0662102
0.0665639
0.0631824
0.056357
0.0469489
0.0357213
0.0236419
0.0117948
0.00129655
-0.0068031
-0.0116117
-0.0124755
-0.00904544
-0.00132561
0.0103077
0.0251038
0.041987
0.0596395
0.0766129
0.0914554
0.102844
0.108918
0.109287
0.103972
0.0935073
0.0788764
0.0613237
-0.01771
-0.0209575
-0.0218362
-0.0203149
-0.0163986
-0.0105239
-0.00350218
0.00377435
0.00984057
0.0136853
0.0145671
0.0121257
0.00644801
-0.00192326
-0.0120495
-0.0227084
-0.0325563
-0.0403034
-0.0448834
-0.045607
-0.042255
-0.0351107
-0.0249241
-0.0128161
-0.000134345
0.0112771
0.0203663
0.0263267
0.0287213
0.0276639
0.0235107
-0.0737728
-0.0916226
-0.10382
-0.1089
-0.106227
-0.0958278
-0.0791191
-0.0580716
-0.0363972
-0.0168201
-0.00177212
0.00691045
0.00820205
0.00200782
-0.0108544
-0.0287817
-0.0496265
-0.0709772
-0.0904609
-0.106031
-0.116197
-0.120165
-0.117889
-0.110016
-0.0977471
-0.0826918
-0.0664266
-0.0504778
-0.0361523
-0.0241855
-0.0151378
-0.120321
-0.150411
-0.172248
-0.183131
-0.181865
-0.168059
-0.143579
-0.111223
-0.0764751
-0.0434108
-0.0158152
0.0032728
0.011894
0.00938103
-0.00362424
-0.0253053
-0.0529679
-0.0833982
-0.113264
-0.139507
-0.159669
-0.172131
-0.176217
-0.17218
-0.16107
-0.144292
-0.123778
-0.101566
-0.0795276
-0.0589939
-0.0411646
-0.149121
-0.186776
-0.214669
-0.229248
-0.228959
-0.213086
-0.18374
-0.144198
-0.100964
-0.0588923
-0.022552
0.00431197
0.0191834
0.0210388
0.0103833
-0.010891
-0.0398354
-0.0728491
-0.106137
-0.136158
-0.160013
-0.175721
-0.182357
-0.180042
-0.16981
-0.153101
-0.132026
-0.108858
-0.0855923
-0.0637288
-0.0445899
-0.158065
-0.19808
-0.228053
-0.244043
-0.244369
-0.228127
-0.197448
-0.155683
-0.109531
-0.0639657
-0.0236922
0.00742354
0.0267631
0.0332276
0.0272693
0.0107399
-0.0134532
-0.0417646
-0.0704812
-0.0961827
-0.116131
-0.128544
-0.132714
-0.128982
-0.11857
-0.103285
-0.0852554
-0.0666917
-0.0492385
-0.0340812
-0.0220409
-0.150991
-0.189334
-0.21844
-0.234393
-0.23557
-0.221004
-0.19262
-0.153459
-0.109694
-0.0658404
-0.0261522
0.00590063
0.0280017
0.0392242
0.0400395
0.0321535
0.0181671
0.00117414
-0.0156814
-0.0296366
-0.038654
-0.0416487
-0.0385505
-0.0302291
-0.0182808
-0.00517128
0.00709485
0.016623
0.0225228
0.0243352
0.0223021
-0.135276
-0.170028
-0.197074
-0.212807
-0.215746
-0.204938
-0.181912
-0.149098
-0.11168
-0.073313
-0.0374146
-0.0067192
0.0170128
0.0331699
0.0422638
0.0457572
0.0457431
0.0445807
0.0445087
0.0472749
0.0538675
0.0643646
0.0779499
0.0930507
0.107609
0.118367
0.123546
0.121744
0.113059
0.0979958
0.0782093
-0.118337
-0.149572
-0.174895
-0.191138
-0.196957
-0.191436
-0.175587
-0.15107
-0.121917
-0.0907737
-0.0600787
-0.0317241
-0.00684974
0.0142619
0.0321274
0.0478887
0.0630221
0.0790263
0.0971079
0.117886
0.141213
0.166106
0.190846
0.213174
0.230614
0.239199
0.237438
0.224482
0.201448
0.169813
0.132695
-0.104607
-0.133378
-0.157862
-0.175348
-0.184567
-0.184638
-0.176041
-0.159672
-0.138516
-0.114289
-0.0885479
-0.0624436
-0.0365966
-0.0110504
0.0146486
0.0412846
0.0697198
0.100638
0.134304
0.170345
0.207648
0.244368
0.27809
0.306065
0.325571
0.332204
0.324775
0.302947
0.26868
0.22422
0.173887
-0.0942707
-0.121288
-0.145184
-0.163662
-0.175487
-0.179814
-0.176696
-0.166428
-0.151215
-0.132095
-0.109995
-0.0855614
-0.0590929
-0.0305296
0.000458573
0.0343241
0.071427
0.111832
0.155133
0.200289
0.24559
0.288707
0.326887
0.357208
0.376943
0.381637
0.370378
0.343207
0.302611
0.251254
0.19416
-0.0841958
-0.108897
-0.131084
-0.148832
-0.160963
-0.166704
-0.165881
-0.158467
-0.146195
-0.129743
-0.109719
-0.0865413
-0.0603911
-0.0312236
0.00115324
0.0369534
0.0762343
0.118736
0.163746
0.209986
0.255595
0.298206
0.335136
0.363628
0.381194
0.383716
0.3705
0.341786
0.300203
0.248429
0.191591
-0.0704685
-0.0909655
-0.109079
-0.123245
-0.132436
-0.136021
-0.133847
-0.125885
-0.11364
-0.0977269
-0.0787088
-0.0569942
-0.0327965
-0.00614024
0.023075
0.0549717
0.0895451
0.126529
0.165283
0.204698
0.243181
0.27872
0.309048
0.331846
0.34504
0.345143
0.331596
0.304646
0.266706
0.220114
0.169522
-0.0511814
-0.0651183
-0.0765317
-0.0842272
-0.0874556
-0.0858113
-0.0793834
-0.0684158
-0.0543246
-0.0378628
-0.0197166
-0.000404841
0.0197724
0.0407411
0.0626056
0.0855624
0.10977
0.135226
0.161657
0.188424
0.21449
0.23845
0.258657
0.273372
0.281007
0.278834
0.266342
0.243623
0.212602
0.175035
0.134677
-0.0280492
-0.0339304
-0.0371205
-0.0367893
-0.0325727
-0.024336
-0.0125476
0.00211808
0.0182969
0.0350258
0.0514479
0.0669247
0.081101
0.0939271
0.105622
0.116596
0.127328
0.138242
0.149588
0.161332
0.173098
0.184162
0.193525
0.200021
0.2025
0.198968
0.188867
0.172031
0.149747
0.123094
0.0947196
-0.00600225
-0.00428528
0.000119103
0.00772467
0.0184879
0.0322899
0.0482762
0.0653361
0.0821845
0.0976903
0.110883
0.121076
0.12794
0.131539
0.132292
0.130895
0.128205
0.1251
0.122352
0.120495
0.119742
0.11995
0.120646
0.121106
0.120488
0.117374
0.111089
0.101166
0.0882343
0.0727282
0.056205
0.00907703
0.0157375
0.0248077
0.0365858
0.0507017
0.0668748
0.0839787
0.100604
0.115588
0.127752
0.136125
0.140079
0.1394
0.134324
0.125501
0.113904
0.100714
0.0871721
0.0744315
0.0634239
0.0547553
0.0486463
0.0449407
0.0431553
0.0425878
0.0421901
0.0411262
0.0386523
0.0348151
0.0295375
0.0234704
0.0131878
0.0207206
0.0301086
0.0415811
0.0546014
0.0688647
0.0831667
0.0960224
0.106424
0.113285
0.11576
0.113374
0.106083
0.0943102
0.0788988
0.0610159
0.0420319
0.0233711
0.00635935
-0.00791335
-0.0187002
-0.0256624
-0.0288705
-0.0287622
-0.0260493
-0.0216047
-0.0164256
-0.0114649
-0.00711456
-0.00378793
-0.00145919
0.00671734
0.0112009
0.0168614
0.0239438
0.0319293
0.0406191
0.0489345
0.0555434
0.0596036
0.0602394
0.0568199
0.0490696
0.0371238
0.0215481
0.00328704
-0.0164334
-0.0362261
-0.0546864
-0.0705379
-0.0827599
-0.0906855
-0.094059
-0.0930351
-0.0881344
-0.0801566
-0.0699221
-0.0585408
-0.0470707
-0.0361697
-0.0264117
-0.0181082
-0.0057579
-0.00641708
-0.00665531
-0.00609179
-0.00509978
-0.00369389
-0.00268701
-0.0030929
-0.00558498
-0.0107605
-0.0189992
-0.0303725
-0.044603
-0.0610571
-0.0787988
-0.0966822
-0.113463
-0.127927
-0.139017
-0.145941
-0.148248
-0.145877
-0.139141
-0.12868
-0.115378
-0.100041
-0.0838054
-0.0677172
-0.0525357
-0.0388531
-0.027082
-0.0170809
-0.0222405
-0.0276859
-0.0328473
-0.0378997
-0.0427013
-0.0477302
-0.0536335
-0.0609105
-0.0698797
-0.0806913
-0.0932589
-0.107234
-0.12201
-0.136767
-0.15056
-0.162403
-0.17138
-0.176738
-0.177974
-0.174887
-0.167603
-0.156556
-0.142442
-0.126137
-0.108388
-0.0902339
-0.0726067
-0.0562049
-0.0415399
-0.0289677
-0.0213793
-0.0284728
-0.0362974
-0.0441871
-0.0521855
-0.0600262
-0.0679864
-0.0763612
-0.0854705
-0.0954111
-0.106169
-0.117572
-0.129275
-0.140774
-0.151442
-0.160593
-0.167547
-0.171708
-0.172626
-0.170056
-0.163987
-0.154649
-0.1425
-0.128172
-0.112419
-0.095852
-0.0793095
-0.0634773
-0.0489302
-0.0360414
-0.0250512
-0.0177591
-0.0238397
-0.0308307
-0.0380049
-0.0454231
-0.0528531
-0.0603617
-0.0680667
-0.0761047
-0.0844402
-0.0929768
-0.101527
-0.109814
-0.117479
-0.124113
-0.129293
-0.132625
-0.133787
-0.132568
-0.128896
-0.122851
-0.114666
-0.104708
-0.0934495
-0.0814205
-0.0690507
-0.0568789
-0.0453371
-0.0348292
-0.0255868
-0.0177379
-0.0277528
-0.0408061
-0.0556251
-0.0720398
-0.0890238
-0.105397
-0.119563
-0.12984
-0.135019
-0.134044
-0.126364
-0.112074
-0.0919561
-0.0674477
-0.0405079
-0.0134165
0.0114734
0.0320015
0.0464517
0.0537667
0.0536753
0.0467236
0.0341964
0.0179551
0.000181881
-0.0163014
-0.0295778
-0.0382789
-0.041861
-0.0402981
-0.0347051
-0.0239217
-0.0384109
-0.0562186
-0.0776061
-0.101233
-0.125571
-0.14821
-0.166359
-0.177705
-0.180271
-0.172807
-0.155041
-0.127788
-0.0929289
-0.0532337
-0.0120714
0.0269649
0.0604677
0.0856099
0.100491
0.104352
0.0976533
0.0819873
0.0598622
0.0343466
0.00946772
-0.0120637
-0.0281149
-0.0374454
-0.0398086
-0.0362288
-0.00148068
-0.0114137
-0.0266239
-0.0481524
-0.0747269
-0.104804
-0.135264
-0.162393
-0.182468
-0.192402
-0.189959
-0.174136
-0.145351
-0.10548
-0.0576732
-0.00600708
0.0449777
0.0908007
0.12756
0.152393
0.163794
0.161747
0.147682
0.124235
0.0948576
0.064034
0.0352241
0.0110456
-0.00646687
-0.0165959
-0.0199115
0.0384736
0.0391723
0.0326009
0.0166534
-0.00790276
-0.0397843
-0.0756868
-0.111239
-0.141262
-0.161574
-0.168823
-0.160989
-0.137676
-0.100226
-0.051571
0.00410054
0.061848
0.116552
0.163506
0.198953
0.220486
0.227266
0.220032
0.200919
0.173087
0.140559
0.107009
0.0756235
0.0489403
0.0283754
0.0141197
0.0850627
0.0996779
0.105531
0.0994001
0.0812901
0.051865
0.0142309
-0.0270542
-0.0657087
-0.0967548
-0.115879
-0.120026
-0.107776
-0.0795417
-0.037504
0.0146685
0.0722851
0.130187
0.183341
0.227392
0.259115
0.276702
0.279855
0.269696
0.248491
0.219026
0.184699
0.148814
0.114275
0.0831744
0.0566513
0.122169
0.149087
0.166746
0.171148
0.161529
0.137833
0.102612
0.0600981
0.016954
-0.0216072
-0.0507937
-0.0668474
-0.0674661
-0.0520661
-0.0218037
0.0206123
0.0712961
0.125653
0.178907
0.226603
0.265062
0.291697
0.305192
0.305508
0.293732
0.271062
0.240218
0.204256
0.166068
0.128194
0.0925287
0.135625
0.168817
0.193696
0.206083
0.204699
0.188858
0.160315
0.12246
0.0813294
0.0416059
0.00781806
-0.0162062
-0.0277397
-0.0254395
-0.00943471
0.0187549
0.0564674
0.100228
0.146144
0.190305
0.22916
0.259833
0.280334
0.28965
0.28772
0.274234
0.250967
0.220342
0.184799
0.146896
0.108859
0.117074
0.147699
0.172469
0.187796
0.192318
0.184985
0.166653
0.139452
0.107722
0.0748188
0.0441724
0.0188969
0.00148643
-0.00642755
-0.00419455
0.00784424
0.0284593
0.0556952
0.0870922
0.11992
0.151439
0.179138
0.200933
0.215301
0.221347
0.217714
0.205132
0.185085
0.159138
0.129349
0.0976421
0.0680008
0.087293
0.104431
0.117137
0.124426
0.125211
0.119462
0.107785
0.0919441
0.0733203
0.0535314
0.0342626
0.0171258
0.00351507
-0.00550033
-0.0092542
-0.00752228
-0.00053533
0.0110448
0.0261676
0.0434852
0.0614727
0.0785523
0.0932283
0.104202
0.109673
0.109363
0.103628
0.09286
0.0781636
0.0605707
-0.000991058
0.000975235
0.00513547
0.010982
0.0182515
0.0261113
0.0337453
0.0401728
0.0441362
0.0447183
0.0413239
0.0337679
0.022333
0.00776091
-0.00881081
-0.0259665
-0.0421767
-0.0559745
-0.0661271
-0.0717894
-0.0725984
-0.0687051
-0.0607498
-0.0497715
-0.0370823
-0.0244028
-0.0128708
-0.00328434
0.00349324
0.00737094
0.00812481
-0.0735301
-0.0903452
-0.100754
-0.103404
-0.0977148
-0.0840904
-0.0639767
-0.0397902
-0.0156952
0.00518151
0.0200613
0.0268489
0.0243835
0.0125733
-0.00761067
-0.0342706
-0.0648455
-0.0964231
-0.126081
-0.151211
-0.169793
-0.180569
-0.183124
-0.177861
-0.16588
-0.148553
-0.12767
-0.105027
-0.0825732
-0.0615362
-0.0433946
-0.132948
-0.165304
-0.187933
-0.197918
-0.193944
-0.175968
-0.145875
-0.107174
-0.06629
-0.0280712
0.00297647
0.0232175
0.0302906
0.0233586
0.00315239
-0.0281745
-0.0673785
-0.110535
-0.153505
-0.19239
-0.223929
-0.245795
-0.256757
-0.256688
-0.246477
-0.2272
-0.201075
-0.170583
-0.138361
-0.106414
-0.0770782
-0.167677
-0.209079
-0.238867
-0.25312
-0.25008
-0.229363
-0.19308
-0.145354
-0.0938587
-0.0443964
-0.00243686
0.0275162
0.0424137
0.0409749
0.0237555
-0.00700579
-0.0477604
-0.0941147
-0.141364
-0.18502
-0.221275
-0.247355
-0.261711
-0.264047
-0.25522
-0.236334
-0.20982
-0.178439
-0.144967
-0.111619
-0.0808915
-0.174519
-0.217629
-0.248855
-0.263943
-0.26103
-0.239569
-0.201665
-0.151522
-0.0969468
-0.0438268
0.0022762
0.0367771
0.0565608
0.0602981
0.0485057
0.0233804
-0.0115893
-0.0521017
-0.0935872
-0.131745
-0.163009
-0.184887
-0.196131
-0.196737
-0.187805
-0.170916
-0.148524
-0.12325
-0.0974406
-0.0728883
-0.0514381
-0.158684
-0.197712
-0.226018
-0.239604
-0.23678
-0.217001
-0.182133
-0.135962
-0.0854713
-0.0358671
0.00796975
0.0420691
0.0638017
0.0721424
0.0676948
0.052508
0.0296955
0.00297898
-0.0238179
-0.0472636
-0.0647232
-0.0746295
-0.0765809
-0.0712762
-0.0603122
-0.0461235
-0.0310518
-0.017215
-0.00606607
0.00154345
0.00514122
-0.130731
-0.162889
-0.18644
-0.198024
-0.196258
-0.180702
-0.15278
-0.11548
-0.0743574
-0.0334268
0.00361758
0.0338681
0.0555258
0.0680762
0.0722637
0.0698926
0.0634711
0.0558034
0.0495587
0.0468576
0.0489688
0.0561423
0.0676125
0.0817488
0.0963338
0.107902
0.114328
0.114219
0.10728
0.0938879
0.075373
-0.101867
-0.127408
-0.146783
-0.157413
-0.158205
-0.148852
-0.130196
-0.104236
-0.07492
-0.0448949
-0.0165052
0.00853088
0.029323
0.0458881
0.059076
0.0703632
0.0815337
0.0943363
0.110145
0.129646
0.152645
0.178016
0.203809
0.227479
0.24624
0.255695
0.253994
0.240532
0.216185
0.182555
0.142818
-0.0796549
-0.100646
-0.117656
-0.128819
-0.133227
-0.130669
-0.121391
-0.106419
-0.088289
-0.0684207
-0.0479683
-0.0276283
-0.00754156
0.012704
0.033965
0.0573425
0.0839056
0.114419
0.149094
0.187369
0.227824
0.268219
0.30569
0.337032
0.359097
0.366906
0.358901
0.335168
0.297549
0.248598
0.19299
-0.0658956
-0.0844562
-0.100551
-0.112859
-0.120537
-0.123429
-0.121298
-0.114415
-0.104334
-0.0916134
-0.0765981
-0.059322
-0.0394798
-0.0164811
0.0104291
0.0419885
0.078686
0.120551
0.166979
0.216591
0.267213
0.315982
0.359582
0.394551
0.417688
0.42391
0.411944
0.382343
0.337554
0.280638
0.217143
-0.057411
-0.0743086
-0.089434
-0.101821
-0.11065
-0.115792
-0.116771
-0.113458
-0.106911
-0.0972904
-0.0845962
-0.0686151
-0.0489247
-0.0249637
0.0038557
0.0379932
0.0775882
0.122295
0.171161
0.222525
0.274039
0.322784
0.365513
0.398937
0.420115
0.424343
0.410581
0.379582
0.333971
0.27682
0.213808
-0.0490752
-0.0633664
-0.0758524
-0.0857798
-0.0923991
-0.0956257
-0.0950445
-0.0905294
-0.0830489
-0.0727959
-0.0598335
-0.0440526
-0.0251688
-0.00278035
0.0235415
0.0541247
0.089035
0.127938
0.169996
0.213783
0.2573
0.298077
0.33337
0.360415
0.376754
0.378419
0.364532
0.335778
0.294571
0.243569
0.187893
-0.0374122
-0.0472466
-0.0547874
-0.0594081
-0.0605377
-0.0581692
-0.0522333
-0.042949
-0.0314433
-0.0182381
-0.00372925
0.0118803
0.0286094
0.046673
0.0664161
0.0882073
0.112296
0.13868
0.166997
0.19643
0.22569
0.253071
0.276596
0.294205
0.30402
0.302957
0.290221
0.266215
0.232853
0.192104
0.148046
-0.0229205
-0.0270189
-0.0282212
-0.0259672
-0.0199662
-0.0103057
0.00256375
0.0178792
0.0342682
0.0507585
0.0665287
0.0810139
0.0939692
0.10548
0.115917
0.125838
0.135853
0.146484
0.15803
0.170448
0.183289
0.195703
0.206519
0.214379
0.217934
0.214936
0.204584
0.186873
0.163063
0.134335
0.103511
-0.00991953
-0.00887164
-0.00451273
0.00372121
0.0158168
0.0316199
0.050154
0.0701004
0.0898692
0.108083
0.123556
0.135439
0.143314
0.147235
0.14769
0.145509
0.141725
0.137411
0.133517
0.130727
0.129345
0.129251
0.129935
0.130579
0.130208
0.127217
0.120717
0.110263
0.0964399
0.0797012
0.061653
-0.00404615
-0.000658194
0.00608214
0.0168371
0.0313715
0.0495493
0.0700209
0.0910781
0.110997
0.128157
0.141169
0.149047
0.151323
0.148104
0.140042
0.128232
0.114062
0.0990363
0.0845913
0.0719171
0.0618245
0.0546626
0.0503192
0.0482768
0.0477314
0.0474696
0.0464605
0.0438688
0.0396875
0.0338022
0.0268465
-0.00897942
-0.00743056
-0.00291329
0.0054477
0.0173577
0.0328126
0.0503514
0.068148
0.0844406
0.0975791
0.106161
0.10922
0.106346
0.0977472
0.0842152
0.067017
0.047741
0.0281081
0.00977231
-0.00586337
-0.0177947
-0.0255103
-0.0290054
-0.0287368
-0.0255165
-0.020392
-0.0145463
-0.00910307
-0.00451177
-0.00124972
0.000679676
-0.0231897
-0.0271662
-0.028836
-0.0270998
-0.0221358
-0.0137271
-0.00317485
0.00786051
0.0176759
0.0247882
0.0279502
0.0263377
0.0196581
0.00821341
-0.00714257
-0.0251129
-0.0441111
-0.0624472
-0.0785227
-0.0910076
-0.098982
-0.102024
-0.100223
-0.0941317
-0.0846656
-0.072838
-0.0599398
-0.047241
-0.0354558
-0.0252276
-0.0168717
-0.0407024
-0.0515724
-0.0610287
-0.0677118
-0.0715849
-0.0721821
-0.0704602
-0.0677036
-0.0654582
-0.0648966
-0.0669948
-0.0723637
-0.0811559
-0.093015
-0.10712
-0.122288
-0.137117
-0.150153
-0.160066
-0.165803
-0.16671
-0.162596
-0.153745
-0.140855
-0.124942
-0.107017
-0.0883893
-0.0703233
-0.0536304
-0.0389639
-0.0266977
-0.0524175
-0.068139
-0.0833742
-0.0965995
-0.10756
-0.115663
-0.121412
-0.125645
-0.12965
-0.134223
-0.140023
-0.147431
-0.156477
-0.166811
-0.177734
-0.188293
-0.197399
-0.203964
-0.207036
-0.205927
-0.200294
-0.190191
-0.176056
-0.158663
-0.139026
-0.118082
-0.0970227
-0.0769758
-0.0586827
-0.0427031
-0.029323
-0.0517546
-0.0681138
-0.0847056
-0.100042
-0.113798
-0.12528
-0.134791
-0.142715
-0.149985
-0.157044
-0.164256
-0.171798
-0.179621
-0.187421
-0.194678
-0.200722
-0.204818
-0.206267
-0.204499
-0.199158
-0.190156
-0.177697
-0.162266
-0.144579
-0.125504
-0.10581
-0.0864557
-0.0682778
-0.0518795
-0.0376615
-0.0257886
-0.0393192
-0.0520673
-0.0655106
-0.0782939
-0.090231
-0.100747
-0.109903
-0.117888
-0.125214
-0.132054