# vtk DataFile Version 2.0
Func
ASCII
DATASET RECTILINEAR_GRID
DIMENSIONS 31 31 31
X_COORDINATES 31 double
-9.67742
-9.03226
-8.3871
-7.74194
-7.09677
-6.45161
-5.80645
-5.16129
-4.51613
-3.87097
-3.22581
-2.58065
-1.93548
-1.29032
-0.645161
0
0.645161
1.29032
1.93548
2.58065
3.22581
3.87097
4.51613
5.16129
5.80645
6.45161
7.09677
7.74194
8.3871
9.03226
9.67742
Y_COORDINATES 31 double
-9.67742
-9.03226
-8.3871
-7.74194
-7.09677
-6.45161
-5.80645
-5.16129
-4.51613
-3.87097
-3.22581
-2.58065
-1.93548
-1.29032
-0.645161
0
0.645161
1.29032
1.93548
2.58065
3.22581
3.87097
4.51613
5.16129
5.80645
6.45161
7.09677
7.74194
8.3871
9.03226
9.67742
Z_COORDINATES 31 double
-9.67742
-9.03226
-8.3871
-7.74194
-7.09677
-6.45161
-5.80645
-5.16129
-4.51613
-3.87097
-3.22581
-2.58065
-1.93548
-1.29032
-0.645161
0
0.645161
1.29032
1.93548
2.58065
3.22581
3.87097
4.51613
5.16129
5.80645
6.45161
7.09677
7.74194
8.3871
9.03226
9.67742
POINT_DATA 29791
SCALARS data double 1
LOOKUP_TABLE default
0.00251863
0.00151151
-0.000381944
-0.00364787
-0.00817689
-0.0138704
-0.0202934
-0.0268679
-0.0329368
-0.0378968
-0.0412
-0.0424259
-0.0413271
-0.0378586
-0.0321816
-0.0246437
-0.015742
-0.00607278
0.00372694
0.0130369
0.0213065
0.0280968
0.0331103
0.0362015
0.0373704
0.0366237
0.0342046
0.0304169
0.0257478
0.0205795
0.0152546
0.00628492
0.00558205
0.00343342
-0.000843238
-0.00710959
-0.0152192
-0.0244795
-0.0339848
-0.042677
-0.0496204
-0.0539853
-0.0551602
-0.0528216
-0.046976
-0.0379569
-0.0263846
-0.0130965
0.000942473
0.0147394
0.0273689
0.0380576
0.0462453
0.0516199
0.0541227
0.0539168
0.0511976
0.0464848
0.0402965
0.0333121
0.0261091
0.0189566
0.0118136
0.0121515
0.0106031
0.00626427
-0.000686181
-0.0100621
-0.0209567
-0.0321499
-0.0422158
-0.0499419
-0.054285
-0.05452
-0.0503291
-0.0418498
-0.0296572
-0.0146942
0.00183873
0.0186182
0.0343427
0.0478675
0.0583169
0.0651585
0.0682312
0.0677298
0.0641339
0.0580282
0.0502428
0.0416042
0.0328694
0.0246796
0.0171368
0.0189119
0.0210833
0.0211046
0.0178635
0.0115747
0.002427
-0.00847915
-0.0196823
-0.0294573
-0.0364058
-0.0393699
-0.0376124
-0.0309174
-0.0196348
-0.0046403
0.0127702
0.0310375
0.0485219
0.0636928
0.0753016
0.0825156
0.0849952
0.0829028
0.0768522
0.0677863
0.0568576
0.0452894
0.0341623
0.0242601
0.0161655
0.00969062
0.0267826
0.031259
0.0334826
0.0321638
0.0275447
0.0198087
0.0102058
0.000381516
-0.00770382
-0.0125437
-0.012948
-0.0082477
0.00160037
0.0159769
0.033668
0.0530109
0.0720989
0.0890122
0.102051
0.109944
0.111997
0.108168
0.0990485
0.0857703
0.0698248
0.0530207
0.0370062
0.0231445
0.0121769
0.00457609
-0.000166628
0.0341104
0.0408068
0.0451942
0.0458526
0.0430568
0.0370011
0.029077
0.0210916
0.0152174
0.013047
0.0157795
0.0239948
0.0375456
0.0555308
0.0763905
0.0980911
0.118377
0.135047
0.146234
0.150637
0.147694
0.137652
0.121518
0.100929
0.0779137
0.0549007
0.0339689
0.0167733
0.00404366
-0.00382787
-0.00760222
0.0392059
0.0473895
0.0531446
0.0550095
0.0533063
0.0482873
0.0414981
0.0349151
0.0309231
0.0312216
0.0370432
0.0489079
0.0665092
0.0886955
0.113586
0.138792
0.161706
0.179825
0.191063
0.194022
0.188176
0.173947
0.152635
0.126262
0.0972835
0.0685949
0.0426701
0.0214614
0.00577755
-0.00396224
-0.00866721
0.0404278
0.048716
0.0543475
0.055905
0.0537877
0.0483724
0.0413865
0.0350011
0.0318206
0.0336982
0.0419543
0.0571116
0.0787718
0.105598
0.135444
0.1656
0.193117
0.215161
0.22936
0.234108
0.228767
0.213751
0.190462
0.161106
0.12839
0.0954376
0.0650466
0.0394544
0.0196653
0.00626838
-0.00162399
0.0366841
0.0433249
0.0469849
0.0463782
0.0420155
0.0344663
0.0256575
0.0179693
0.0142065
0.0164097
0.0260346
0.0436699
0.0689007
0.100287
0.135498
0.17157
0.20525
0.233375
0.253251
0.262969
0.261641
0.249498
0.227833
0.198824
0.165224
0.130133
0.0965639
0.0669939
0.042706
0.0245765
0.0118878
0.0280454
0.0313573
0.0313259
0.0268616
0.0186133
0.00738712
-0.0047011
-0.0150774
-0.0207961
-0.0196314
-0.00997452
0.00887044
0.0365379
0.0715711
0.111554
0.153367
0.193538
0.228636
0.25566
0.272377
0.277571
0.271168
0.254193
0.22862
0.197062
0.162385
0.127686
0.0955936
0.0676749
0.045132
0.0275005
0.0160193
0.0149052
0.0101225
0.000799705
-0.0122753
-0.0280637
-0.0443107
-0.0583065
-0.0670613
-0.0682104
-0.060014
-0.0416574
-0.0134086
0.0233433
0.0662089
0.112045
0.157297
0.198389
0.232112
0.25597
0.26844
0.26911
0.258667
0.238765
0.211743
0.180116
0.146912
0.114786
0.0854939
0.0604975
0.0395774
0.00344123
-0.00217219
-0.0116829
-0.0257826
-0.043584
-0.0638825
-0.0843746
-0.102311
-0.114768
-0.119323
-0.114155
-0.09834
-0.0720125
-0.0364113
0.00622582
0.0528892
0.100118
0.144371
0.182402
0.211593
0.230216
0.237582
0.234051
0.220921
0.200184
0.173967
0.145081
0.116053
0.0886492
0.0644357
0.0433464
-0.00608675
-0.0150285
-0.0279804
-0.0455592
-0.0668636
-0.0906531
-0.114694
-0.136313
-0.152743
-0.161589
-0.161004
-0.149965
-0.128435
-0.0974169
-0.0588648
-0.0154864
0.0295454
0.0729288
0.11158
0.142943
0.165239
0.177616
0.180167
0.173855
0.160293
0.14125
0.119179
0.0963243
0.0742529
0.0544322
0.0368202
-0.00909083
-0.0190345
-0.0330103
-0.0517201
-0.0743734
-0.0998689
-0.126166
-0.150779
-0.171132
-0.184926
-0.190314
-0.186165
-0.172221
-0.149155
-0.118511
-0.082534
-0.0439324
-0.00558017
0.0297853
0.0598399
0.082899
0.0980579
0.105222
0.105045
0.0987543
0.0877981
0.0741646
0.0596837
0.0455495
0.0329501
0.0217584
-0.00320241
-0.0110721
-0.0229557
-0.0398299
-0.061157
-0.0861645
-0.113111
-0.139774
-0.163743
-0.182834
-0.195189
-0.199531
-0.19531
-0.182779
-0.16296
-0.137516
-0.108559
-0.0784061
-0.0493276
-0.023309
-0.00185377
0.0141448
0.0244395
0.0293891
0.0298229
0.0268757
0.0220015
0.0165416
0.0112353
0.00689552
0.00327454
0.0120747
0.00947023
0.00286216
-0.00917985
-0.0265018
-0.0488235
-0.0747695
-0.102418
-0.129435
-0.153725
-0.173372
-0.186888
-0.19336
-0.192546
-0.184872
-0.171353
-0.153446
-0.132868
-0.111393
-0.0906502
-0.0719611
-0.0562179
-0.0438393
-0.0347864
-0.0286516
-0.0246609
-0.0219127
-0.0195604
-0.017274
-0.0145955
-0.0118275
0.0350514
0.0403104
0.041551
0.0367642
0.0256325
0.00784062
-0.0156232
-0.0431284
-0.0723074
-0.101095
-0.127458
-0.149634
-0.166293
-0.176659
-0.180546
-0.178321
-0.170813
-0.159181
-0.144759
-0.128893
-0.112796
-0.0974355
-0.0834679
-0.0712253
-0.0607522
-0.0517263
-0.0437639
-0.0364502
-0.0297043
-0.0232922
-0.0174162
0.0620974
0.0766193
0.0871098
0.090948
0.0873233
0.0753062
0.0555202
0.0293404
-0.000739196
-0.032634
-0.0641476
-0.0932169
-0.118088
-0.137472
-0.150614
-0.157307
-0.157845
-0.15294
-0.143604
-0.13102
-0.116408
-0.10091
-0.0855005
-0.0709294
-0.057709
-0.0460639
-0.0360485
-0.0275653
-0.0205564
-0.0148173
-0.0102525
0.0883843
0.112011
0.131662
0.144182
0.148322
0.14261
0.127357
0.103725
0.0743621
0.0413868
0.00714956
-0.0260204
-0.0560082
-0.0810972
-0.100076
-0.112292
-0.117641
-0.116524
-0.109768
-0.09851
-0.0840781
-0.0678619
-0.0511932
-0.0352505
-0.0209865
-0.0092231
-0.000339486
0.00557966
0.00878794
0.00965094
0.00873154
0.108926
0.139913
0.167128
0.187073
0.198178
0.198585
0.188356
0.168464
0.141651
0.110025
0.076008
0.0420858
0.0105979
-0.0164645
-0.0375933
-0.0518466
-0.0588705
-0.0588864
-0.0526318
-0.0412706
-0.0262716
-0.00927163
0.00807355
0.024221
0.0378617
0.0476164
0.0529066
0.0535891
0.0502518
0.043541
0.0345617
0.119651
0.154959
0.186915
0.211947
0.228336
0.234039
0.228932
0.213802
0.191327
0.163501
0.132671
0.101298
0.071752
0.0461011
0.0259654
0.0124143
0.00592454
0.00637034
0.0130634
0.0248254
0.0401034
0.0571097
0.07399
0.0889795
0.100558
0.106933
0.107448
0.101984
0.0914765
0.0768573
0.0597107
0.118257
0.154099
0.187244
0.214359
0.233759
0.243436
0.243134
0.233422
0.216708
0.19472
0.16954
0.143391
0.11845
0.0966519
0.0795486
0.0681975
0.0631107
0.0642291
0.0709447
0.0821549
0.0963636
0.111812
0.12665
0.139093
0.147594
0.150188
0.146232
0.135665
0.119649
0.0992877
0.0764434
0.104665
0.137183
0.167858
0.193889
0.213793
0.225805
0.229569
0.225398
0.215208
0.200308
0.182325
0.163034
0.144213
0.127481
0.114168
0.10522
0.101142
0.101961
0.107229
0.116061
0.127204
0.139152
0.150291
0.159043
0.164028
0.163386
0.156553
0.143511
0.125423
0.103374
0.0791997
0.081021
0.106969
0.132029
0.154161
0.172216
0.184818
0.191542
0.192415
0.188685
0.181122
0.170754
0.158756
0.146357
0.134726
0.124876
0.117584
0.11334
0.112299
0.114272
0.118729
0.124846
0.13157
0.137735
0.142166
0.143813
0.14118
0.133818
0.121694
0.105727
0.0867621
0.0662785
0.0512757
0.0685704
0.0859128
0.102134
0.116487
0.128073
0.136423
0.141273
0.143117
0.142143
0.138718
0.133353
0.126663
0.119312
0.111957
0.105189
0.0994926
0.0951908
0.0924186
0.0910997
0.0909518
0.0915125
0.0921951
0.0923522
0.0913581
0.0882702
0.0827537
0.0747066
0.0645949
0.0528445
0.0403112
0.0203101
0.0283512
0.0372156
0.0466047
0.0561742
0.0655117
0.0741274
0.0815107
0.0874267
0.0915212
0.0935431
0.0933737
0.0910446
0.0867387
0.0807732
0.073569
0.0656112
0.0574014
0.0494088
0.0420254
0.0355326
0.0300821
0.0256953
0.0222758
0.0196414
0.0174728
0.0155361
0.0136217
0.0116315
0.00949214
0.00728251
-0.00667209
-0.00693122
-0.00582464
-0.00294935
0.00169645
0.00811895
0.0158421
0.024184
0.0323332
0.0395214
0.0450172
0.0482083
0.0486632
0.046179
0.0407968
0.0327937
0.0226527
0.0110161
-0.00137458
-0.0137405
-0.0253289
-0.0354695
-0.0436239
-0.0494161
-0.0526491
-0.0530775
-0.0508546
-0.0462998
-0.0400474
-0.0326338
-0.0247
-0.0255895
-0.0318219
-0.0365058
-0.0387265
-0.0382455
-0.0347548
-0.0286867
-0.020788
-0.0122102
-0.00394556
0.00300107
0.00772569
0.00951462
0.00791973
0.00279623
-0.00568881
-0.0170776
-0.030664
-0.0455567
-0.0607483
-0.0751957
-0.0878989
-0.0979825
-0.104756
-0.107767
-0.106366
-0.100645
-0.0909922
-0.0784322
-0.063818
-0.048374
-0.0338192
-0.0427734
-0.0503835
-0.0554618
-0.0576567
-0.0565338
-0.0524214
-0.04602
-0.0385385
-0.0309724
-0.0243585
-0.0196552
-0.017649
-0.0188709
-0.023551
-0.0316007
-0.042626
-0.055962
-0.07073
-0.0859023
-0.100383
-0.113089
-0.123046
-0.129456
-0.131766
-0.12915
-0.121644
-0.109683
-0.0943973
-0.0767554
-0.0582782
-0.0315511
-0.0401357
-0.0478135
-0.053393
-0.0565507
-0.0568097
-0.0544717
-0.0500613
-0.0445908
-0.0388725
-0.0337694
-0.0300903
-0.0285122
-0.0295075
-0.0333036
-0.0398639
-0.0488939
-0.0598655
-0.0720606
-0.0846222
-0.0966206
-0.107122
-0.11527
-0.12035
-0.121858
-0.119021
-0.111882
-0.100695
-0.0865493
-0.0702837
-0.053398
-0.0222886
-0.0283562
-0.0340614
-0.038347
-0.041046
-0.0417886
-0.0407501
-0.0382965
-0.0350798
-0.031627
-0.0285082
-0.0262628
-0.0253486
-0.0260926
-0.0286621
-0.0330504
-0.0390781
-0.0464065
-0.054564
-0.0629792
-0.0710227
-0.0780536
-0.0834769
-0.0867869
-0.087623
-0.0854499
-0.0802276
-0.0721237
-0.061949
-0.0502192
-0.0382294
0.00680671
0.00629287
0.00423121
-2.50953e-05
-0.00636569
-0.0146499
-0.0241978
-0.0341087
-0.0432968
-0.0507929
-0.0557209
-0.0574108
-0.0554721
-0.0498422
-0.0407896
-0.0288826
-0.0149267
0.000119068
0.0152367
0.0294427
0.041874
0.0518552
0.0589435
0.0629436
0.0638951
0.0618232
0.0571737
0.0504839
0.0424931
0.0338123
0.025025
0.0138269
0.0142281
0.0122002
0.00680383
-0.00182565
-0.0134654
-0.0270619
-0.0412388
-0.0542731
-0.0646883
-0.0711772
-0.0727779
-0.0689841
-0.0598121
-0.0457945
-0.0279168
-0.00750316
0.0139267
0.0348163
0.0537245
0.0694592
0.0811737
0.0884196
0.0911501
0.0896695
0.0842956
0.0759276
0.0654496
0.0538585
0.042036
0.030498
0.0234506
0.0258196
0.0250511
0.0198749
0.0104599
-0.00290132
-0.0188488
-0.0355425
-0.0506724
-0.0623346
-0.0688911
-0.0692019
-0.0627659
-0.0497962
-0.031192
-0.00842971
0.0166145
0.0418776
0.0653383
0.08523
0.100217
0.10951
0.112908
0.110768
0.103894
0.0932258
0.0801289
0.0659647
0.0518382
0.0387133
0.0268528
0.0352099
0.0406244
0.0424439
0.0390766
0.0307206
0.0176777
0.00160018
-0.0153141
-0.030266
-0.0410531
-0.0458484
-0.0434803
-0.0335921
-0.0167133
0.00580239
0.0319423
0.059284
0.0852829
0.107571
0.124231
0.134
0.136397
0.131729
0.121007
0.105759
0.0878351
0.0691822
0.0515123
0.0359981
0.023498
0.0138009
0.0478279
0.0568767
0.0620852
0.0615922
0.0556168
0.0444676
0.0300219
0.0147545
0.00186211
-0.00626586
-0.00773136
-0.0014466
0.0126976
0.0337729
0.0599172
0.0885617
0.116755
0.141526
0.160251
0.170981
0.172675
0.165317
0.149883
0.12819
0.102614
0.076066
0.051109
0.0298425
0.0133954
0.00243578
-0.00382799
0.0592968
0.0717123
0.0800935
0.0823766
0.0788151
0.0697534
0.0572872
0.0441426
0.0338825
0.0290569
0.0316064
0.042509
0.0616044
0.0875493
0.117963
0.149714
0.179319
0.203379
0.219009
0.224221
0.218184
0.20133
0.175282
0.142643
0.106621
0.0711341
0.039374
0.0138375
-0.00435618
-0.0146897
-0.0184528
0.0670127
0.0815438
0.0917579
0.0955117
0.0931246
0.0850469
0.0736166
0.0618281
0.0536053
0.0516911
0.0581056
0.0737608
0.0982743
0.129935
0.165883
0.202446
0.235608
0.261506
0.276927
0.279737
0.269169
0.245934
0.212122
0.170935
0.126251
0.0827533
0.0442232
0.0135703
-0.00798931
-0.0199352
-0.0238815
0.0685388
0.0829997
0.0927082
0.0955749
0.0920377
0.0827493
0.0703353
0.0581028
0.050337
0.0500397
0.0593881
0.0793182
0.109322
0.147416
0.190339
0.233936
0.273665
0.305159
0.324776
0.33007
0.320116
0.295637
0.258891
0.213392
0.163413
0.114036
0.0695443
0.0332593
0.00663465
-0.00959658
-0.0170919
0.0622781
0.0739695
0.0803538
0.079538
0.0721381
0.0591023
0.0433759
0.0286035
0.0193854
0.019023
0.0299118
0.0530958
0.0880455
0.13262
0.183274
0.235462
0.284176
0.324551
0.352454
0.364997
0.360891
0.340604
0.306261
0.261362
0.210279
0.158092
0.109449
0.0680336
0.0356362
0.0133764
-0.000191861
0.0484164
0.0547967
0.0552951
0.0483334
0.0347505
0.0158467
-0.00512672
-0.0242111
-0.0366034
-0.0387209
-0.0279412
-0.00306625
0.0354367
0.0853867
0.143094
0.203763
0.262048
0.312674
0.351053
0.373816
0.379207
0.367263
0.339745
0.299876
0.251853
0.200439
0.150457
0.105841
0.068715
0.0406475
0.0205516
0.0293147
0.0287666
0.0218643
0.00740253
-0.013552
-0.0393621
-0.0665457
-0.0909226
-0.107657
-0.112974
-0.104079
-0.0796237
-0.0399588
0.0128056
0.0749925
0.141748
0.20759
0.26702
0.315147
0.348227
0.364069
0.362242
0.344043
0.312261
0.270721
0.223691
0.175946
0.131488
0.0926493
0.0613582
0.0368808
0.00932012
0.00179221
-0.0123685
-0.0340263
-0.0619449
-0.0942531
-0.127378
-0.157074
-0.17866
-0.188313
-0.183159
-0.161738
-0.12425
-0.0726247
-0.0103515
0.0578879
0.126735
0.190743
0.244974
0.285528
0.309944
0.317427
0.308827
0.286457
0.253667
0.214186
0.172509
0.132471
0.0963856
0.0663185
0.0417432
-0.00610153
-0.0187916
-0.0381776
-0.0649186
-0.0977388
-0.13472
-0.172384
-0.206613
-0.233027
-0.247903
-0.248391
-0.232948
-0.201584
-0.155933
-0.0991084
-0.0353718
0.0303315
0.092914
0.147698
0.190904
0.220041
0.234116
0.233645
0.220488
0.197484
0.167868
0.135635
0.104212
0.0756248
0.051792
0.032182
-0.0117299
-0.0260612
-0.046988
-0.0751929
-0.10955
-0.148338
-0.188372
-0.225844
-0.256739
-0.277538
-0.285471
-0.27891
-0.257604
-0.22276
-0.176927
-0.123711
-0.0673787
-0.0123757
0.0371555
0.0778159
0.107297
0.12458
0.129949
0.124861
0.111623
0.0930433
0.0724317
0.0526019
0.0350777
0.0213758
0.0107809
-0.00406202
-0.0154453
-0.0332574
-0.0584872
-0.0903741
-0.127653
-0.167599
-0.206856
-0.241717
-0.268904
-0.285707
-0.290354
-0.282232
-0.26198
-0.231415
-0.193302
-0.151032
-0.108216
-0.0682829
-0.0340984
-0.00766418
0.0100589
0.01917
0.0207255
0.0164773
0.00880279
0.000211335
-0.00721248
-0.0125446
-0.0147973
-0.0149248
0.01755
0.0138082
0.00377585
-0.0141181
-0.0396766
-0.0723065
-0.109854
-0.149482
-0.187646
-0.221258
-0.247588
-0.264613
-0.271238
-0.267412
-0.254097
-0.233115
-0.206888
-0.178131
-0.14952
-0.123372
-0.101395
-0.0845269
-0.0729038
-0.0659251
-0.0624512
-0.0606322
-0.0587908
-0.055579
-0.0506056
-0.0433693
-0.0349468
0.050461
0.0581027
0.0595189
0.0523559
0.0361139
0.0105844
-0.0226865
-0.0613744
-0.101907
-0.141288
-0.176656
-0.205626
-0.226519
-0.238516
-0.241685
-0.236895
-0.225633
-0.209782
-0.191358
-0.172252
-0.154011
-0.137688
-0.12378
-0.112247
-0.102633
-0.093791
-0.0848209
-0.0750097
-0.0642853
-0.0524311
-0.0403781
0.0891426
0.110076
0.124806
0.130131
0.12482
0.10785
0.0801938
0.0437214
0.00218915
-0.041402
-0.0839715
-0.122704
-0.155303
-0.180191
-0.196589
-0.204505
-0.204629
-0.198173
-0.186679
-0.171807
-0.155136
-0.138012
-0.121438
-0.106039
-0.0920932
-0.0793449
-0.0675417
-0.0564265
-0.0459509
-0.0358918
-0.0266957
0.126338
0.160141
0.187821
0.205429
0.211085
0.203057
0.18183
0.148896
0.108248
0.0629336
0.0162608
-0.0285543
-0.068666
-0.101845
-0.126612
-0.142292
-0.14897
-0.147393
-0.138834
-0.124912
-0.107408
-0.0880866
-0.0685512
-0.0501302
-0.0338217
-0.0203754
-0.0100141
-0.00272812
0.00178887
0.00404523
0.00437337
0.15465
0.198572
0.236645
0.264436
0.279602
0.279909
0.265465
0.237442
0.199978
0.156113
0.10928
0.0629477
0.0203264
-0.0159111
-0.0438081
-0.0622284
-0.0708606
-0.0701769
-0.0613289
-0.0460048
-0.0262468
-0.00425776
0.0177965
0.0379571
0.0546119
0.0660414
0.0717319
0.0716267
0.0664658
0.0572104
0.0451082
0.168149
0.217592
0.261769
0.296156
0.318201
0.325443
0.317713
0.29589
0.264018
0.224977
0.182111
0.138884
0.0985917
0.064067
0.03748
0.0201989
0.0127495
0.0148172
0.0253187
0.0425151
0.0641863
0.0878328
0.110905
0.131019
0.146153
0.153833
0.153418
0.144896
0.12945
0.10849
0.0840866
0.163633
0.212991
0.258029
0.294582
0.320169
0.332387
0.33088
0.316213
0.292004
0.26075
0.225418
0.189151
0.154999
0.125645
0.103209
0.0890897
0.083905
0.0874635
0.0988058
0.116286
0.137724
0.1606
0.182287
0.200279
0.212426
0.21587
0.209959
0.194753
0.171713
0.142515
0.109733
0.141257
0.184932
0.225558
0.259753
0.28536
0.300297
0.304078
0.29692
0.281659
0.260171
0.234757
0.207919
0.182149
0.159701
0.142416
0.131579
0.12784
0.131168
0.140858
0.15558
0.173492
0.192396
0.209952
0.223884
0.232207
0.232136
0.223071
0.205092
0.17965
0.148381
0.113881
0.104488
0.137887
0.169701
0.197649
0.220096
0.235466
0.243188
0.243098
0.236969
0.225869
0.211208
0.194608
0.177767
0.162307
0.149638
0.140843
0.136593
0.137088
0.14203
0.150631
0.16167
0.1736
0.184698
0.193233
0.197644
0.195646
0.186719
0.17086
0.149182
0.122948
0.0942474
0.0594161
0.079739
0.0999451
0.119007
0.135909
0.14968
0.159703
0.165435
0.167449
0.165926
0.161288
0.154168
0.145363
0.13577
0.126301
0.117804
0.110983
0.106327
0.104053
0.104064
0.105954
0.109042
0.112446
0.11518
0.116275
0.114265
0.108692
0.0993819
0.0868354
0.0716731
0.0550522
0.0134129
0.0200766
0.0278806
0.0370256
0.0471124
0.0577821
0.0683987
0.0781001
0.086306
0.0923688
0.0957747
0.0962143
0.093623
0.0881942
0.0803602
0.0707421
0.0600843
0.0491734
0.0387547
0.0294545
0.0217215
0.0157905
0.0116781
0.00920334
0.00803534
0.00765798
0.00766121
0.00763897
0.00734449
0.00663206
0.00549042
-0.0257292
-0.030994
-0.0342161
-0.0342261
-0.0308996
-0.0240776
-0.0143724
-0.00285785
0.00897733
0.0198517
0.0285245
0.0339464
0.0353652
0.0324082
0.0251108
0.0139006
-0.000457468
-0.0169421
-0.034378
-0.0515406
-0.067262
-0.0805249
-0.0905383
-0.0967813
-0.0990257
-0.0969104
-0.09081
-0.0813483
-0.0694765
-0.0560479
-0.0421695
-0.0521498
-0.0656895
-0.0768222
-0.0837177
-0.0858986
-0.0828374
-0.0750894
-0.0637933
-0.0509659
-0.0382318
-0.0272439
-0.0194877
-0.016134
-0.0179165
-0.0250699
-0.0373203
-0.0539281
-0.0737624
-0.0954095
-0.117288
-0.137782
-0.155369
-0.168745
-0.17691
-0.179246
-0.174755
-0.163773
-0.147051
-0.126054
-0.10212
-0.0772163
-0.0620026
-0.0788599
-0.093516
-0.103881
-0.10932
-0.109181
-0.103868
-0.0944327
-0.0829644
-0.0710881
-0.0604956
-0.052746
-0.0491113
-0.0504437
-0.0571022
-0.0689288
-0.085278
-0.105079
-0.126935
-0.149229
-0.170258
-0.18837
-0.202095
-0.210261
-0.212088
-0.206284
-0.193114
-0.173411
-0.148745
-0.12063
-0.0914099
-0.0559128
-0.071424
-0.0853398
-0.0957015
-0.101931
-0.103317
-0.100268
-0.0935634
-0.0849533
-0.0757732
-0.0674367
-0.0612632
-0.0583496
-0.0594538
-0.0649304
-0.0747033
-0.0882829
-0.104811
-0.123137
-0.141903
-0.159654
-0.17495
-0.18649
-0.193208
-0.194375
-0.188774
-0.176652
-0.158528
-0.135932
-0.110191
-0.0835494
-0.0393975
-0.0503571
-0.0605381
-0.0683169
-0.0733491
-0.0750546
-0.0736869
-0.0698152
-0.0645766
-0.0588537
-0.0535955
-0.0496953
-0.0479061
-0.0487595
-0.0525196
-0.0591625
-0.0683828
-0.0796203
-0.0921069
-0.104923
-0.117069
-0.12754
-0.135418
-0.139934
-0.140556
-0.13644
-0.127627
-0.114446
-0.0980903
-0.0794337
-0.0603236
0.0122212
0.0127467
0.0111414
0.00660597
-0.00076767
-0.0108155
-0.0226776
-0.0351785
-0.0468466
-0.0563925
-0.0626493
-0.0647202
-0.0620786
-0.0546323
-0.0427299
-0.027119
-0.00886269
0.0107706
0.0304341
0.0488261
0.0648041
0.0774758
0.0862585
0.090899
0.0914585
0.0879475
0.0809769
0.0713179
0.0599304
0.0476527
0.0353068
0.0229202
0.0251838
0.0241628
0.0186596
0.00877885
-0.00520401
-0.0219834
-0.0397847
-0.0562919
-0.0695574
-0.0778542
-0.0799031
-0.0750216
-0.0632128
-0.045159
-0.0221396
0.00411935
0.0316336
0.0583698
0.0824437
0.102298
0.116831
0.125463
0.128142
0.125281
0.117266
0.105312
0.0906563
0.0745567
0.0581906
0.0423105
0.0369681
0.0422815
0.0433744
0.0386014
0.0280799
0.0121766
-0.0074515
-0.0284323
-0.0476715
-0.0626663
-0.0712574
-0.0719288
-0.0639973
-0.0477119
-0.0242201
0.0045741
0.0362426
0.0681126
0.0975658
0.122316
0.140642
0.151539
0.154768
0.150821
0.140774
0.125842
0.107847
0.0886373
0.0695813
0.0519428
0.0361175
0.053599
0.0632604
0.0680767
0.0659516
0.0570128
0.0416292
0.0218058
0.000380583
-0.0188983
-0.0331352
-0.0399168
-0.0376759
-0.0259056
-0.00525375
0.0225554
0.0549359
0.0887676
0.120772
0.147906
0.167712
0.178597
0.179985
0.172332
0.157006
0.136042
0.11189
0.0871294
0.0640027
0.04395
0.0280406
0.0160048
0.0710328
0.0856589
0.0950489
0.0967253
0.0908183
0.0777048
0.059652
0.0398713
0.0226538
0.0111548
0.00789851
0.0143622
0.0307493
0.0559112
0.0874785
0.122158
0.156159
0.185669
0.207333
0.218683
0.218444
0.20668
0.184751
0.155104
0.120902
0.0860408
0.0538965
0.0271447
0.00713868
-0.00537315
-0.0115238
0.0866683
0.105762
0.119258
0.124385
0.121294
0.110411
0.0942662
0.0764263
0.0616931
0.0534607
0.0543389
0.0656921
0.0873995
0.117795
0.153852
0.191562
0.226454
0.254174
0.271045
0.274572
0.26378
0.239346
0.203507
0.159762
0.112378
0.0666446
0.0267381
-0.00421767
-0.0249208
-0.0349007
-0.0360681
0.0970101
0.118774
0.134449
0.141126
0.139026
0.128715
0.113034
0.0959313
0.0827175
0.0770743
0.0817519
0.0980632
0.125628
0.162324
0.204519
0.247514
0.286152
0.315488
0.331428
0.331306
0.314253
0.28134
0.235438
0.180858
0.122762
0.0675185
0.0200454
-0.016045
-0.0393798
-0.0495659
-0.0490556
0.0988581
0.120309
0.13498
0.140009
0.135765
0.123078
0.105175
0.0864453
0.0727076
0.0680162
0.0753617
0.0961194
0.129771
0.173855
0.224232
0.275572
0.322043
0.358044
0.378929
0.381639
0.365119
0.330479
0.280845
0.220958
0.156526
0.0945168
0.0404697
-0.00147971
-0.0297199
-0.0436519
-0.0458866
0.0900957
0.107616
0.117535
0.117247
0.107355
0.0890766
0.0660826
0.0432295
0.0267683
0.02117
0.0297308
0.0539826
0.0933874
0.145282
0.20515
0.267147
0.324828
0.371938
0.403196
0.414976
0.405772
0.376395
0.329831
0.270846
0.205307
0.140269
0.0817152
0.0342757
-7.69136e-05
-0.020297
-0.0287985
0.0709569
0.0811749
0.0830014
0.0742658
0.0558827
0.029531
-0.000678762
-0.0294704
-0.0503308
-0.0584195
-0.0501492
-0.0238002
0.0201507
0.0789643
0.147907
0.220787
0.290698
0.350841
0.395344
0.419974
0.422646
0.403654
0.365561
0.312831
0.251156
0.187263
0.127355
0.076438
0.0368483
0.0101736
-0.00559122
0.0445404
0.0453252
0.0371391
0.0183585
-0.00976842
-0.0451147
-0.083224
-0.118543
-0.144548
-0.15618
-0.149666
-0.123142
-0.0769915
-0.0139189
0.0613037
0.142364
0.222142
0.293537
0.350287
0.387694
0.403155
0.396421
0.369522
0.326437
0.272453
0.213746
0.156478
0.105805
0.0642839
0.0339414
0.0131831
0.0165507
0.00782678
-0.010107
-0.0383344
-0.0753345
-0.118655
-0.16368
-0.204805
-0.235776
-0.251533
-0.248285
-0.224111
-0.179295
-0.116403
-0.0400457
0.0436217
0.127597
0.204824
0.268994
0.315241
0.340677
0.34466
0.328745
0.296389
0.252366
0.202254
0.151904
0.10632
0.0680118
0.0391652
0.0184092
-0.00584875
-0.0217366
-0.046712
-0.0814687
-0.12437
-0.172863
-0.222431
-0.267683
-0.302857
-0.323115
-0.324812
-0.306051
-0.266996
-0.209952
-0.139147
-0.060276
0.020141
0.0954945
0.159824
0.208473
0.238587
0.249373
0.242063
0.219653
0.186364
0.14725
0.107593
0.071917
0.0423761
0.0209515
0.00621727
-0.0158374
-0.0343731
-0.0616067
-0.0981237
-0.142409
-0.192107
-0.243078
-0.290388
-0.328863
-0.354049
-0.362535
-0.352463
-0.323808
-0.27846
-0.220034
-0.15347
-0.0844636
-0.0188167
0.038219
0.0825292
0.111578
0.124643
0.122777
0.108577
0.0856986
0.0587407
0.0322059
0.00985746
-0.0067577
-0.0161781
-0.0201163
-0.0088654
-0.0242128
-0.0477685
-0.0803728
-0.120914
-0.167538
-0.21673
-0.264185
-0.305253
-0.3359
-0.352935
-0.354456
-0.34012
-0.311217
-0.270531
-0.222005
-0.170258
-0.120039
-0.0756662
-0.0405202
-0.0166708
-0.00467586
-0.00361763
-0.0113061
-0.0247011
-0.0396805
-0.0526679
-0.0608207
-0.0633027
-0.0593236
-0.0509395
0.0158744
0.00961133
-0.00443819
-0.0277357
-0.0598325
-0.0996379
-0.144423
-0.190578
-0.233771
-0.270311
-0.297097
-0.312029
-0.314261
-0.304308
-0.283951
-0.255986
-0.22384
-0.191126
-0.16119
-0.136685
-0.119258
-0.10938
-0.106369
-0.108552
-0.113608
-0.118057
-0.119307
-0.115443
-0.106248
-0.0915276
-0.0735021
0.0549102
0.0623352
0.0622314
0.0522384
0.0319618
0.00157744
-0.0370311
-0.0809144
-0.125784
-0.168134
-0.204771
-0.233209
-0.251935
-0.260549
-0.259746
-0.251147
-0.237014
-0.219917
-0.202366
-0.186471
-0.173668
-0.164567
-0.158938
-0.15581
-0.153724
-0.150122
-0.14336
-0.132307
-0.117098
-0.0978539
-0.0765721
0.101074
0.124399
0.140306
0.145428
0.138474
0.118693
0.0871662
0.0462904
0.00054108
-0.0465945
-0.0916709
-0.131683
-0.164354
-0.188336
-0.203261
-0.209669
-0.208819
-0.202443
-0.192475
-0.18076
-0.168821
-0.157684
-0.147821
-0.139159
-0.131216
-0.122659
-0.112677
-0.10067
-0.0867717
-0.0710227
-0.0547132
0.145049
0.183518
0.214661
0.234211
0.240079
0.230711
0.206513
0.169448
0.124274
0.07455
0.0240287
-0.0237532
-0.0657964
-0.0998967
-0.124772
-0.140077
-0.146298
-0.144596
-0.136593
-0.124146
-0.109111
-0.0931542
-0.0776123
-0.0634191
-0.051109
-0.0407696
-0.0322501
-0.0252074
-0.0194354
-0.0145246
-0.0106435
0.177463
0.22742
0.270317
0.30131
0.317742
0.317501
0.300477
0.268287
0.225869
0.176813
0.125076
0.0745756
0.0288349
-0.0093154
-0.0379292
-0.0560322
-0.0635878
-0.0614106
-0.0510114
-0.0344052
-0.0138876
0.00819042
0.0296274
0.0485383
0.0634675
0.072917
0.0765707
0.0747405
0.0681752
0.0579471
0.0452047
0.190964
0.246527
0.295657
0.333423
0.356917
0.363782
0.353556
0.327531
0.290526
0.245973
0.197777
0.149923
0.106123
0.0694962
0.0423396
0.0259865
0.0207864
0.0261342
0.0405774
0.0619683
0.0876778
0.114839
0.140602
0.162372
0.178014
0.184881
0.182373
0.170885
0.151709
0.126559
0.0977768
0.181802
0.235977
0.284816
0.323859
0.350305
0.361876
0.357895
0.339286
0.310309
0.273946
0.233681
0.193159
0.155862
0.124814
0.102333
0.0898733
0.0879596
0.0961725
0.11321
0.136993
0.164857
0.193784
0.220676
0.242623
0.257163
0.260989
0.253358
0.234739
0.206753
0.171498
0.132075
0.150571
0.196545
0.238733
0.273674
0.298996
0.312789
0.31426
0.303879
0.284885
0.259486
0.230355
0.200375
0.172391
0.148962
0.132145
0.123332
0.123163
0.13147
0.147295
0.168942
0.194117
0.220123
0.244106
0.263311
0.275349
0.276854
0.267041
0.246331
0.21632
0.179068
0.137776
0.102065
0.134442
0.164885
0.191326
0.212061
0.225748
0.231553
0.229416
0.221178
0.208013
0.191472
0.173348
0.15553
0.139837
0.12786
0.120817
0.119456
0.123965
0.133944
0.1484
0.165808
0.184245
0.201564
0.215601
0.224398
0.225121
0.216997
0.200225
0.175979
0.145824
0.112352
0.044316
0.0600564
0.0757711
0.0909639
0.104717
0.116359
0.125053
0.130196
0.132049
0.130636
0.126237
0.119395
0.110887
0.101655
0.0927211
0.0850813
0.0795989
0.0769019
0.0772976
0.0807084
0.0866576
0.0943042
0.10253
0.110061
0.115618
0.11734
0.114487
0.106888
0.0949691
0.0794465
0.0617159
-0.0131879
-0.014314
-0.0137867
-0.0105881
-0.00486181
0.00337812
0.0133361
0.0239179
0.0338791
0.0421531
0.0478097
0.05019
0.0489846
0.0442758
0.0365205
0.0264855
0.0151494
0.00358361
-0.0071743
-0.0162389
-0.022971
-0.027036
-0.0284185
-0.0273958
-0.0244729
-0.020338
-0.015683
-0.0111263
-0.00714314
-0.00403171
-0.00190682
-0.0604995
-0.0758125
-0.088248
-0.0956209
-0.0974352
-0.0931623
-0.0835225
-0.0699524
-0.0548677
-0.0401683
-0.0277246
-0.0191421
-0.015596
-0.0177044
-0.025484
-0.0383741
-0.0553241
-0.0749168
-0.0955226
-0.115456
-0.13313
-0.147197
-0.156647
-0.160865
-0.159657
-0.152606
-0.140345
-0.123893
-0.104564
-0.0835853
-0.0625017
-0.0904885
-0.115041
-0.136189
-0.151005
-0.158581
-0.158023
-0.149951
-0.135937
-0.119049
-0.101634
-0.0860856
-0.0745605
-0.0687558
-0.0697341
-0.0778375
-0.0926798
-0.113219
-0.137874
-0.164686
-0.191492
-0.216112
-0.236536
-0.251082
-0.258515
-0.258135
-0.248711
-0.230792
-0.20564
-0.175165
-0.141226
-0.106471
-0.0984371
-0.125732
-0.149838
-0.16765
-0.178108
-0.18025
-0.174486
-0.162298
-0.146789
-0.130285
-0.115206
-0.103777
-0.0978022
-0.0984787
-0.106297
-0.121013
-0.141706
-0.16687
-0.19457
-0.222596
-0.248653
-0.270553
-0.286393
-0.294697
-0.294537
-0.284297
-0.264395
-0.236219
-0.20177
-0.163127
-0.123369
-0.0855204
-0.109554
-0.131195
-0.147639
-0.157972
-0.161198
-0.157771
-0.148806
-0.136874
-0.123889
-0.111866
-0.102678
-0.0978715
-0.0985027
-0.105049
-0.117378
-0.134784
-0.156056
-0.179596
-0.203545
-0.225939
-0.244867
-0.25863
-0.265877
-0.265718
-0.256616
-0.23894
-0.213627
-0.18261
-0.147685
-0.111778
-0.0595116
-0.0762816
-0.0917756
-0.103758
-0.111669
-0.114693
-0.113119
-0.107776
-0.100336
-0.0920709
-0.0843398
-0.0784166
-0.0753662
-0.075931
-0.0804679
-0.088924
-0.100854
-0.115462
-0.131676
-0.148229
-0.163765
-0.176941
-0.186549
-0.191604
-0.191442
-0.184994
-0.172336
-0.154069
-0.131714
-0.106473
-0.0807012
0.0171607
0.0189076
0.0181418
0.0139642
0.00642618
-0.00432486
-0.0173235
-0.0312449
-0.0443641
-0.0551869
-0.0623535
-0.0648081
-0.0619159
-0.0535399
-0.0400511
-0.0222836
-0.00144077
0.0210296
0.04358
0.0647034
0.0830663
0.0976148
0.107647
0.112836
0.113223
0.10875
0.10013
0.0882591
0.0742598
0.059138
0.0439135
0.0310514
0.0353659
0.0358478
0.031111
0.021199