# vtk DataFile Version 2.0
Func
ASCII
DATASET RECTILINEAR_GRID
DIMENSIONS 31 31 31
X_COORDINATES 31 double
-9.67742
-9.03226
-8.3871
-7.74194
-7.09677
-6.45161
-5.80645
-5.16129
-4.51613
-3.87097
-3.22581
-2.58065
-1.93548
-1.29032
-0.645161
0
0.645161
1.29032
1.93548
2.58065
3.22581
3.87097
4.51613
5.16129
5.80645
6.45161
7.09677
7.74194
8.3871
9.03226
9.67742
Y_COORDINATES 31 double
-9.67742
-9.03226
-8.3871
-7.74194
-7.09677
-6.45161
-5.80645
-5.16129
-4.51613
-3.87097
-3.22581
-2.58065
-1.93548
-1.29032
-0.645161
0
0.645161
1.29032
1.93548
2.58065
3.22581
3.87097
4.51613
5.16129
5.80645
6.45161
7.09677
7.74194
8.3871
9.03226
9.67742
Z_COORDINATES 31 double
-9.67742
-9.03226
-8.3871
-7.74194
-7.09677
-6.45161
-5.80645
-5.16129
-4.51613
-3.87097
-3.22581
-2.58065
-1.93548
-1.29032
-0.645161
0
0.645161
1.29032
1.93548
2.58065
3.22581
3.87097
4.51613
5.16129
5.80645
6.45161
7.09677
7.74194
8.3871
9.03226
9.67742
POINT_DATA 29791
SCALARS data double 1
LOOKUP_TABLE default
0.00607553
0.00932654
0.0135234
0.0183229
0.023366
0.0280584
0.0317349
0.0336766
0.0331729
0.0296454
0.0227276
0.0123296
-0.001326
-0.0177017
-0.0359799
-0.0551309
-0.0740063
-0.0914453
-0.106384
-0.117947
-0.125527
-0.128821
-0.127848
-0.122922
-0.11461
-0.103418
-0.0901506
-0.075626
-0.0609012
-0.0466012
-0.0337324
0.0115037
0.017196
0.0243051
0.0322595
0.040472
0.0479824
0.05376
0.0567002
0.0557366
0.0499949
0.0389333
0.0224386
0.000879875
-0.0248902
-0.0535906
-0.0836165
-0.113184
-0.140493
-0.163898
-0.182047
-0.193998
-0.199287
-0.197944
-0.190457
-0.177699
-0.160426
-0.13993
-0.117495
-0.094703
-0.0725666
-0.0525229
0.0182359
0.0265162
0.0365194
0.0473897
0.0583362
0.0680783
0.0753095
0.0786459
0.0768079
0.0687321
0.0537846
0.0318743
0.00351681
-0.0301683
-0.0675279
-0.106508
-0.144836
-0.180225
-0.210583
-0.234196
-0.249865
-0.256993
-0.255605
-0.246309
-0.2302
-0.208199
-0.181924
-0.153077
-0.123649
-0.0949668
-0.0688669
0.0256524
0.0362392
0.0485569
0.0614294
0.0739335
0.0845865
0.0919781
0.0946642
0.0913975
0.0811191
0.0632444
0.0377711
0.00533963
-0.0327766
-0.0747488
-0.118335
-0.161072
-0.200493
-0.234343
-0.260774
-0.278488
-0.286825
-0.285791
-0.276011
-0.258639
-0.234608
-0.205655
-0.17359
-0.140666
-0.108362
-0.0788021
0.0333532
0.0456925
0.0593993
0.0729331
0.0853358
0.0950687
0.100855
0.101469
0.0959962
0.0836276
0.0640063
0.0373016
0.00425
-0.0338656
-0.0752904
-0.117926
-0.159497
-0.197743
-0.230609
-0.256402
-0.273927
-0.282554
-0.282249
-0.273534
-0.25742
-0.234645
-0.206776
-0.175474
-0.142971
-0.110711
-0.080933
0.0410478
0.0545322
0.0686282
0.0814173
0.0919979
0.0989157
0.101256
0.0982811
0.0896978
0.0751827
0.0547802
0.0289137
-0.00160818
-0.035628
-0.0717003
-0.108183
-0.143348
-0.175511
-0.203153
-0.225018
-0.240202
-0.24819
-0.24889
-0.242603
-0.230005
-0.211447
-0.188045
-0.161053
-0.132442
-0.103442
-0.0763208
0.0485734
0.0626517
0.0762272
0.0870121
0.0942363
0.0966431
0.093872
0.0859008
0.0732936
0.0564102
0.0358405
0.0123303
-0.01326
-0.0400105
-0.0669794
-0.0932387
-0.117904
-0.140165
-0.159312
-0.174748
-0.186002
-0.192734
-0.194759
-0.19205
-0.184775
-0.172716
-0.156309
-0.136188
-0.113899
-0.0903241
-0.0677132
0.05579
0.0700792
0.0825026
0.0904374
0.0932861
0.0900566
0.081059
0.0671202
0.0497966
0.0302449
0.00967914
-0.0107992
-0.0302981
-0.0482086
-0.0642137
-0.0782546
-0.0904603
-0.101064
-0.110312
-0.11837
-0.125258
-0.13081
-0.134694
-0.136453
-0.135621
-0.13125
-0.12295
-0.110632
-0.0953533
-0.0776132
-0.0596887
0.06236
0.0766431
0.0876083
0.0923693
0.0905102
0.0813261
0.0658214
0.0456912
0.0234932
0.00118618
-0.0193994
-0.0368269
-0.0502045
-0.0592752
-0.0643917
-0.0664066
-0.066497
-0.0659588
-0.0659935
-0.0675076
-0.0709632
-0.0762969
-0.0829466
-0.0899355
-0.0960718
-0.09955
-0.0991138
-0.0939375
-0.0846525
-0.0714406
-0.056715
0.0674047
0.0814987
0.0909486
0.0927241
0.086577
0.0720789
0.0508541
0.0253572
-0.000990555
-0.0255483
-0.0459817
-0.0606087
-0.0685946
-0.0700516
-0.0659757
-0.0580644
-0.0484395
-0.0393296
-0.0327443
-0.0301761
-0.0323811
-0.0392669
-0.0499344
-0.0628127
-0.0759489
-0.0865988
-0.0926971
-0.0927733
-0.0871848
-0.075948
-0.0617552
0.0693082
0.0828054
0.0906907
0.0899666
0.0805358
0.0622256
0.037124
0.00822406
-0.0204682
-0.0458682
-0.0653515
-0.0771527
-0.0805851
-0.0761378
-0.0653746
-0.0506868
-0.0349316
-0.0210231
-0.01152
-0.0082519
-0.0120531
-0.0226361
-0.0386602
-0.0579207
-0.0777244
-0.094385
-0.105168
-0.10812
-0.103518
-0.0914022
-0.0748682
0.065839
0.0778254
0.0837919
0.0810056
0.069523
0.0494197
0.0230426
-0.00637112
-0.0346215
-0.0585039
-0.075394
-0.0836606
-0.0828863
-0.0739459
-0.058869
-0.0405422
-0.022288
-0.00739671
0.00133879
0.00203875
-0.00597899
-0.0220782
-0.0444085
-0.0701475
-0.0959497
-0.117286
-0.130949
-0.134697
-0.128901
-0.113786
-0.092904
0.0546823
0.063573
0.066712
0.0619002
0.0493821
0.0295037
0.00465646
-0.0219942
-0.0465016
-0.0658982
-0.0778788
-0.0811852
-0.0758001
-0.0629918
-0.0451439
-0.0254254
-0.00734216
0.00575434
0.0111443
0.00715974
-0.00654238
-0.0288842
-0.057511
-0.0890777
-0.119748
-0.144371
-0.159489
-0.16277
-0.154778
-0.13601
-0.110412
0.0343107
0.0379387
0.0367492
0.0293447
0.016219
-0.001961
-0.0229454
-0.0439241
-0.061636
-0.073677
-0.0783486
-0.0749746
-0.0640449
-0.0472123
-0.0270974
-0.00694755
0.00980571
0.0200212
0.0212989
0.0123676
-0.00668012
-0.0343304
-0.0678276
-0.10349
-0.137227
-0.1636
-0.179139
-0.181594
-0.171723
-0.150284
-0.121421
0.00492442
0.000946338
-0.00639927
-0.017495
-0.0315295
-0.0474575
-0.063305
-0.0768226
-0.0857771
-0.0885618
-0.0842808
-0.072968
-0.0556626
-0.034354
-0.0117702
0.00894935
0.0246584
0.0326267
0.030929
0.0187698
-0.00333874
-0.0335639
-0.068955
-0.105764
-0.139947
-0.166195
-0.181259
-0.183116
-0.172627
-0.150708
-0.121401
-0.0309142
-0.0443536
-0.0594596
-0.075495
-0.0912911
-0.105392
-0.116173
-0.12205
-0.122004
-0.115325
-0.101979
-0.0827175
-0.0590763
-0.0332723
-0.00799103
0.0139055
0.0297157
0.0372414
0.0350896
0.0229133
0.00152238
-0.0271441
-0.0602246
-0.094234
-0.125506
-0.14931
-0.16284
-0.164409
-0.154842
-0.135058
-0.108632
-0.0683016
-0.0918298
-0.115391
-0.137175
-0.155674
-0.169049
-0.176047
-0.175746
-0.16834
-0.153963
-0.133352
-0.107848
-0.0793251
-0.050055
-0.0225068
0.000888102
0.0179838
0.0271642
0.0275429
0.0191114
0.00278369
-0.019661
-0.0457661
-0.0726464
-0.0973366
-0.116094
-0.126746
-0.128025
-0.120572
-0.105148
-0.0845113
-0.100828
-0.133291
-0.164516
-0.191824
-0.213471
-0.227341
-0.232533
-0.228703
-0.217068
-0.198415
-0.174031
-0.145603
-0.115105
-0.084639
-0.0562728
-0.031877
-0.012976
-0.000611405
0.00475523
0.00329909
-0.00417806
-0.0163203
-0.0313634
-0.0473094
-0.0621548
-0.0734423
-0.0797818
-0.0803738
-0.0755576
-0.0658159
-0.0528117
-0.122097
-0.160435
-0.196822
-0.228058
-0.252331
-0.26743
-0.27277
-0.268446
-0.256352
-0.237657
-0.21389
-0.186781
-0.158119
-0.129606
-0.102745
-0.0787519
-0.0585104
-0.0425389
-0.0309861
-0.0236516
-0.0200358
-0.0194095
-0.0209005
-0.0235792
-0.0265525
-0.0287899
-0.0297514
-0.0291179
-0.026864
-0.0231314
-0.0183414
-0.127496
-0.167178
-0.20481
-0.237094
-0.262364
-0.278538
-0.285307
-0.283038
-0.273884
-0.259093
-0.240113
-0.218414
-0.195345
-0.17202
-0.149264
-0.127606
-0.107326
-0.0885039
-0.071095
-0.0550043
-0.0401582
-0.0265556
-0.0142856
-0.00352232
0.00551369
0.0124682
0.0170621
0.0191702
0.0191907
0.0173259
0.014386
-0.115657
-0.151602
-0.185929
-0.21566
-0.23948
-0.25566
-0.264114
-0.265329
-0.261299
-0.253081
-0.241776
-0.228356
-0.213558
-0.197808
-0.181233
-0.163722
-0.145042
-0.124954
-0.103328
-0.0802622
-0.0561444
-0.0316821
-0.0078502
0.0141962
0.0332721
0.0478563
0.0569875
0.060186
0.0581864
0.0514922
0.0419845
-0.089037
-0.11679
-0.143696
-0.167436
-0.187187
-0.20174
-0.211178
-0.215975
-0.217635
-0.216833
-0.214156
-0.209961
-0.204316
-0.19698
-0.187467
-0.175157
-0.159451
-0.139926
-0.11647
-0.0894011
-0.0595244
-0.0281222
0.00315059
0.0324164
0.0578048
0.0769825
0.0885332
0.0917589
0.0876661
0.0769878
0.0624002
-0.0533759
-0.0701625
-0.0869756
-0.102359
-0.116028
-0.127355
-0.136534
-0.143928
-0.150349
-0.15601
-0.160937
-0.164884
-0.167324
-0.167486
-0.164446
-0.157275
-0.145197
-0.127748
-0.104913
-0.0772164
-0.0457656
-0.0122052
0.0214235
0.0528657
0.0799226
0.0998794
0.111144
0.112961
0.10653
0.0927252
0.0746814
-0.0161422
-0.021463
-0.02758
-0.0339338
-0.0407149
-0.04784
-0.0555385
-0.0639979
-0.0733036
-0.0832186
-0.0932745
-0.102748
-0.110696
-0.116029
-0.117627
-0.114476
-0.105822
-0.0912979
-0.0710309
-0.0457104
-0.0165921
0.0145636
0.0456494
0.0743981
0.0986493
0.11574
0.124178
0.123306
0.114427
0.0984696
0.078679
0.0155367
0.0199618
0.023066
0.0246254
0.0241196
0.0212223
0.015739
0.0076854
-0.00239338
-0.0139062
-0.0260369
-0.0377765
-0.0479926
-0.0555234
-0.0592891
-0.0584111
-0.0523193
-0.0408453
-0.0242825
-0.00341525
0.0205045
0.0458317
0.0706783
0.0930784
0.111218
0.122847
0.12679
0.12261
0.111618
0.0947065
0.0749369
0.0367829
0.0476963
0.057058
0.064077
0.0680878
0.0685363
0.0653205
0.0586558
0.0495254
0.0387386
0.0272811
0.016241
0.00672154
-0.000256111
-0.00384467
-0.00345235
0.00119869
0.0100299
0.0225932
0.0380816
0.0553742
0.0731137
0.0898307
0.104069
0.114556
0.119688
0.118729
0.11152
0.0992882
0.0828192
0.0647666
0.045887
0.0595015
0.0716039
0.0810961
0.087338
0.0897265
0.0882804
0.0833752
0.0761999
0.0676359
0.0586698
0.0502959
0.043427
0.0388079
0.0369537
0.038109
0.0422384
0.0490316
0.0579316
0.0681774
0.0788623
0.0890043
0.0976362
0.103883
0.107069
0.106302
0.1013
0.0921636
0.0799651
0.065323
0.0503739
0.0444634
0.0575207
0.0692988
0.0786304
0.0850153
0.0879306
0.0875074
0.0842152
0.0792328
0.0733888
0.0675465
0.0625001
0.0588966
0.0571682
0.0575008
0.05983
0.0638684
0.069146
0.0750669
0.0809708
0.0861955
0.0901332
0.0922866
0.0923023
0.0900168
0.085168
0.0778332
0.0683044
0.057443
0.0456798
0.0345992
0.0360277
0.0464409
0.0558921
0.0633532
0.0685007
0.0709646
0.0709282
0.0688695
0.0657893
0.0623712
0.0592823
0.0570813
0.056157
0.0566829
0.0586086
0.061679
0.0654805
0.0694983
0.0731825
0.0760134
0.0775576
0.0775097
0.0757188
0.0721913
0.067095
0.0605872
0.0529501
0.0445504
0.0360178
0.0276084
0.0203732
0.0247562
0.0317702
0.0381646
0.0431449
0.0465483
0.0481278
0.0480997
0.0468568
0.0451267
0.0434018
0.0421359
0.0416739
0.0422103
0.0437623
0.0461735
0.0491416
0.0522648
0.0550965
0.0572042
0.0582252
0.0579093
0.056146
0.0529727
0.0485625
0.0432072
0.0372341
0.0309636
0.0247429
0.0189703
0.013769
0.00976069
0.0141814
0.0180847
0.0216773
0.0244207
0.026258
0.027035
0.0269234
0.0262009
0.0253006
0.02452
0.0241225
0.0242915
0.0251073
0.0265323
0.0284192
0.0305328
0.0325847
0.0342715
0.0353164
0.0355054
0.0347152
0.032928
0.0302313
0.0268046
0.0228993
0.0188077
0.0147812
0.0110543
0.00784222
0.00520016
0.00342736
0.0112585
0.0170596
0.0243302
0.0325794
0.0412118
0.049261
0.055683
0.0593429
0.0591339
0.0541497
0.0438183
0.0280041
0.00706255
-0.0181581
-0.0463722
-0.0759646
-0.105139
-0.132084
-0.155148
-0.172981
-0.184656
-0.189732
-0.188269
-0.180793
-0.168209
-0.15134
-0.131499
-0.109951
-0.0882281
-0.0673339
-0.0484972
0.0201851
0.0299362
0.0418329
0.0550769
0.0687083
0.0812068
0.0909869
0.0963348
0.0956255
0.0875165
0.0711796
0.0464494
0.0139031
-0.02514
-0.0687046
-0.114322
-0.159255
-0.200749
-0.236292
-0.263836
-0.281969
-0.290018
-0.288072
-0.276919
-0.257931
-0.232286
-0.202067
-0.169238
-0.136034
-0.104007
-0.0749912
0.0307486
0.0445516
0.0609076
0.0786359
0.0964597
0.112392
0.124442
0.130479
0.12858
0.117134
0.0951798
0.06259
0.0201582
-0.0304056
-0.0865834
-0.145253
-0.202967
-0.256263
-0.301985
-0.337555
-0.36119
-0.372024
-0.370142
-0.356502
-0.332797
-0.300432
-0.261988
-0.220047
-0.17739
-0.136036
-0.0983696
0.0419833
0.0592889
0.0790874
0.0997748
0.11987
0.137112
0.149365
0.154408
0.150395
0.135735
0.10955
0.0718437
0.0235905
-0.0332847
-0.096023
-0.161247
-0.225252
-0.284332
-0.335109
-0.374821
-0.40154
-0.414305
-0.413156
-0.399062
-0.373776
-0.338684
-0.296542
-0.250074
-0.202422
-0.155845
-0.113123
0.0534926
0.073392
0.0951487
0.116676
0.136437
0.152126
0.161823
0.163636
0.156257
0.138486
0.109797
0.0704515
0.0215559
-0.0349726
-0.0965162
-0.159948
-0.221884
-0.278961
-0.328123
-0.366861
-0.3934
-0.406813
-0.407056
-0.39491
-0.371874
-0.338993
-0.298736
-0.253584
-0.206634
-0.160107
-0.116928
0.065193
0.0868173
0.109062
0.129332
0.146165
0.157429
0.161759
0.157998
0.145815
0.124763
0.0949314
0.0569645
0.0120659
-0.0380571
-0.0912824
-0.145206
-0.197304
-0.245112
-0.286406
-0.319342
-0.342581
-0.355352
-0.357488
-0.349399
-0.332035
-0.305798
-0.272445
-0.233805
-0.192607
-0.150774
-0.111229
0.0771404
0.0997997
0.121289
0.138501
0.150158
0.154468
0.150909
0.139401
0.120962
0.0962014
0.0660487
0.0316411
-0.00574544
-0.0447792
-0.0841256
-0.122492
-0.158661
-0.191519
-0.220087
-0.243524
-0.261139
-0.272403
-0.276977
-0.274731
-0.265801
-0.249673
-0.227028
-0.19873
-0.166894
-0.132953
-0.0997675
0.0892942
0.112607
0.132584
0.145631
0.150706
0.14645
0.133354
0.112617
0.0868218
0.0578111
0.0274813
-0.0024787
-0.0307418
-0.0564545
-0.0792444
-0.0991585
-0.116539
-0.131877
-0.145656
-0.1582
-0.169556
-0.179438
-0.187256
-0.192195
-0.193386
-0.189162
-0.178916
-0.162384
-0.140979
-0.115588
-0.0890649
0.101093
0.124915
0.143115
0.151681
0.149815
0.136616
0.113612
0.0833122
0.0498831
0.0164128
-0.0142403
-0.0398573
-0.0590974
-0.0716357
-0.0781184
-0.0799864
-0.0791856
-0.077835
-0.077881
-0.0807749
-0.0872352
-0.0971217
-0.109479
-0.122678
-0.134725
-0.142609
-0.144395
-0.138687
-0.12626
-0.107553
-0.0855814
0.110974
0.135142
0.151623
0.156122
0.148067
0.126982
0.0953145
0.0567185
0.0167363
-0.0204802
-0.0512766
-0.0730324
-0.0844698
-0.0858058
-0.0786536
-0.0657339
-0.0504305
-0.0362852
-0.0264808
-0.0233663
-0.0281129
-0.040539
-0.0591765
-0.081491
-0.104325
-0.123212
-0.135007
-0.137339
-0.13054
-0.114819
-0.0935745
0.116149
0.140063
0.154811
0.15604
0.143384
0.116749
0.0792596
0.0353819
-0.00840119
-0.0472377
-0.0770017
-0.0949127
-0.0998861
-0.0926828
-0.0757554
-0.0528628
-0.028497
-0.00724004
0.00688685
0.0110133
0.00383554
-0.0141855
-0.0409281
-0.0729116
-0.105867
-0.133885
-0.152852
-0.159692
-0.154548
-0.137667
-0.113037
0.112903
0.13511
0.147566
0.146187
0.13083
0.101748
0.0624315
0.0177208
-0.0255768
-0.0624093
-0.0886242
-0.101613
-0.100664
-0.0870888
-0.0640138
-0.0359224
-0.00799286
0.0146332
0.0275799
0.0278922
0.0144785
-0.0116989
-0.0477775
-0.0893743
-0.131263
-0.166263
-0.189615
-0.197849
-0.19116
-0.170063
-0.139228
0.0974989
0.115475
0.124195
0.120233
0.103738
0.0753151
0.0384996
-0.00196221
-0.0396518
-0.0698722
-0.0889385
-0.0947825
-0.0872669
-0.0682611
-0.0413886
-0.0115224
0.0159139
0.0357091
0.0436085
0.036975
0.0152126
-0.0200805
-0.0653204
-0.11538
-0.16434
-0.204108
-0.229629
-0.237344
-0.227653
-0.201458
-0.164022
0.0675425
0.0778777
0.0805084
0.0730804
0.0561361
0.0306804
1.55226e-05
-0.0316242
-0.0589044
-0.0779954
-0.0861309
-0.082112
-0.0665429
-0.0418391
-0.0119384
0.0182156
0.0433569
0.05863
0.0602883
0.0463022
0.0167225
-0.0262243
-0.0783947
-0.134209
-0.187423
-0.22957
-0.25565
-0.262277
-0.250078
-0.220321
-0.178575
0.0233893
0.0224338
0.0161473
0.00359159
-0.0141866
-0.0357301
-0.0581625
-0.0780649
-0.0917453
-0.0966147
-0.0911406
-0.0752012
-0.0502169
-0.0190801
0.0141539
0.0447599
0.0679604
0.0795723
0.0766056
0.0577701
0.0237487
-0.0227745
-0.077405
-0.134522
-0.188015
-0.229706
-0.254979
-0.260823
-0.24801
-0.218011
-0.17625
-0.0309595
-0.046081
-0.0637521
-0.0833038
-0.103123
-0.121275
-0.135414
-0.14309
-0.14257
-0.132672
-0.113206
-0.0851544
-0.0506848
-0.0130103
0.0239207
0.0558606
0.0787682
0.0893268
0.0854021
0.0664145
0.0335075
-0.010488
-0.0613479
-0.113901
-0.162672
-0.200468
-0.223363
-0.22887
-0.217743
-0.191425
-0.154652
-0.0879708
-0.118261
-0.148408
-0.176169
-0.199396
-0.215724
-0.223365
-0.220842
-0.208396
-0.186185
-0.155239
-0.117465
-0.075555
-0.0327894
0.00724655
0.0410105
0.0653668
0.0779446
0.077435
0.0638126
0.0384006
0.00378788
-0.0364368
-0.07805
-0.116691
-0.146778
-0.165333
-0.1705
-0.162836
-0.143514
-0.116066
-0.137906
-0.181692
-0.223194
-0.258872
-0.286198
-0.302514
-0.306567
-0.297739
-0.277952
-0.248432
-0.211101
-0.168436
-0.1233
-0.0787186
-0.0376464
-0.00273195
0.0238863
0.0407699
0.0473115
0.0438117
0.0314548
0.0122023
-0.0114112
-0.0365291
-0.0602829
-0.0791524
-0.0912951
-0.0955462
-0.0921227
-0.0817377
-0.0663271
-0.171131
-0.223916
-0.273137
-0.314452
-0.345214
-0.362699
-0.366138
-0.355582
-0.334103
-0.303573
-0.266351
-0.22503
-0.182233
-0.140392
-0.101598
-0.067483
-0.0391732
-0.0172647
-0.00183852
0.00749001
0.0114841
0.0111805
0.00777245
0.00249459
-0.00348324
-0.00889572
-0.0131181
-0.0156853
-0.0163843
-0.0153725
-0.0127959
-0.180771
-0.235895
-0.287138
-0.329974
-0.361954
-0.380561
-0.385455
-0.377133
-0.359147
-0.333555
-0.30266
-0.268722
-0.23374
-0.199289
-0.166445
-0.135795
-0.107528
-0.0815475
-0.0576022
-0.0354296
-0.0148754
0.00402587
0.021034
0.0357265
0.0475902
0.0557296
0.0596111
0.0590608
0.0547449
0.0470693
0.0376366
-0.164832
-0.214858
-0.26153
-0.300759
-0.330594
-0.348989
-0.355961
-0.352244
-0.3412
-0.324652
-0.304437
-0.282121
-0.258828
-0.235137
-0.211098
-0.186349
-0.160306
-0.132379
-0.102173
-0.0696902
-0.0354456
-0.000513124
0.0335584
0.0648907
0.0915334
0.110796
0.121198
0.122065
0.114485
0.0993626
0.07979
-0.127029
-0.165465
-0.20164
-0.232401
-0.256505
-0.272556
-0.280851
-0.282176
-0.279158
-0.273083
-0.265056
-0.255766
-0.245385
-0.233535
-0.219386
-0.201843
-0.179802
-0.152408
-0.119295
-0.08079
-0.038017
0.0071117
0.0520563
0.0938868
0.129654
0.155447
0.169181
0.169884
0.159
0.137817
0.110496
-0.0759077
-0.0987452
-0.120637
-0.139645
-0.155306
-0.166932
-0.174996
-0.180189
-0.184075
-0.187255
-0.190018
-0.192187
-0.193092
-0.191606
-0.186303
-0.175672
-0.15839
-0.13358
-0.101041
-0.0614199
-0.0162843
0.0319335
0.0801495
0.124913
0.162827
0.189448
0.202498
0.200948
0.186507
0.160702
0.128264
-0.0225126
-0.029076
-0.0359129
-0.0423361
-0.0485686
-0.0545617
-0.0608436
-0.0678988
-0.076146
-0.0855094
-0.0955462
-0.105391
-0.11379
-0.119197
-0.119946
-0.114469
-0.101533
-0.0804582
-0.0512966
-0.0149583
0.0267669
0.0712961
0.115486
0.155918
0.189311
0.211371
0.220025
0.214419
0.196414
0.16763
0.132859
0.0227002
0.029865
0.0358515
0.0402839
0.0424623
0.0419746
0.0383627
0.031416
0.0217197
0.00990182
-0.00307034
-0.0159179
-0.0271358
-0.0351175
-0.0383183
-0.0354368
-0.0255838
-0.0084344
0.0156667
0.0456423
0.0797067
0.11547
0.150156
0.180854
0.204861
0.218594
0.2205
0.210063
0.189177
0.159406
0.125173
0.0526503
0.0687928
0.0832555
0.0949328
0.102914
0.106552
0.105564
0.100035
0.0912632
0.0802347
0.0681862
0.0565132
0.0466566
0.0399751
0.0376147
0.0403883
0.0486866
0.0624096
0.0809379
0.103136
0.12741
0.151818
0.174247
0.192599
0.20504
0.209057
0.203776
0.189093
0.166816
0.138323
0.107354
0.0650105
0.0846679
0.102538
0.11716
0.127657
0.133359
0.134209
0.130559
0.124058
0.11584
0.107167
0.0993059
0.0934079
0.0903978
0.0908909
0.0951376
0.103014
0.114028
0.127363
0.141929
0.15645
0.169555
0.17991
0.186325
0.1879
0.18329
0.172289
0.155176
0.133556
0.108531
0.0830174
0.0623429
0.0809059
0.0978592
0.111724
0.121818
0.127591
0.129202
0.127186
0.123215
0.118381
0.113798
0.110455
0.10912
0.110246
0.113944
0.119978
0.127819
0.136708
0.145742
0.153967
0.160461
0.16442
0.165226
0.16249
0.156106
0.145746
0.131721
0.114577
0.0956326
0.0756756
0.0567688
0.0499124
0.0645152
0.0778375
0.0886423
0.0964962
0.101042
0.102555
0.101633
0.0997088
0.0976989
0.0964609
0.0966683
0.0987282
0.102727
0.10843
0.115317
0.122661
0.129625
0.13536
0.139108
0.140282
0.138519
0.133719
0.126031
0.115848
0.103513
0.0896108
0.0747694
0.059984
0.0457442
0.0333281
0.0339325
0.0436623
0.0525113
0.0595792
0.0646502
0.0674972
0.068465
0.0680723
0.0673695
0.0670253
0.0676211
0.0695539
0.0729813
0.077791
0.0836162
0.0898849
0.0958991
0.100925
0.104284
0.105442
0.10407
0.100081
0.0936361
0.085116
0.0750812
0.0641404
0.0528904
0.0419142
0.0318618
0.0229916
0.0159817
0.0193529
0.0247575
0.0296663
0.0335217
0.0362354
0.037656
0.0380712
0.0378703
0.0376827
0.0379196
0.0389182
0.0408798
0.0438377
0.0476418
0.0519774
0.0564045
0.0604171
0.0635076
0.0652323
0.0652708
0.0634666
0.0598467
0.0546171
0.048136
0.0408716
0.0333571
0.0260533
0.0193541
0.013625
0.00899651
0.00572475
0.0175477
0.0262375
0.0368907
0.0488578
0.0613261
0.0729835
0.0824432
0.0882016
0.0888217
0.0831149
0.070338
0.050325
0.0235575
-0.00883585
-0.0451557
-0.0832757
-0.12084
-0.155487
-0.185071
-0.207863
-0.222695
-0.229049
-0.227069
-0.217502
-0.201585
-0.180497
-0.155932
-0.129611
-0.103357
-0.0784059
-0.0560895
0.0300257
0.0441827
0.0611663
0.0799518
0.0992429
0.117012
0.131171
0.139467
0.13981
0.130455
0.110335
0.0792482
0.0379658
-0.0117781
-0.0674
-0.125683
-0.18307
-0.236003
-0.28125
-0.316203
-0.339097
-0.34914
-0.346535
-0.332388
-0.308547
-0.276694
-0.239463
-0.199518
-0.159496
-0.121299
-0.0869765
0.0438921
0.0633922
0.086225
0.110908
0.135736
0.158105
0.175389
0.184815
0.183919
0.170612
0.143662
0.102911
0.0494004
-0.0146446
-0.0859591
-0.160506
-0.233837
-0.301506
-0.359476
-0.404477
-0.434284
-0.447869
-0.445436
-0.428312
-0.39875
-0.358735
-0.311513
-0.260537
-0.209097
-0.159681
-0.114983
0.0578008
0.0816406
0.108703
0.137014
0.164619
0.188596
0.206134
0.214366
0.210934
0.193783
0.161782
0.114934
0.0544919
-0.0170702
-0.0962104
-0.178599
-0.259495
-0.334167
-0.398323
-0.44847
-0.482204
-0.49837
-0.497101
-0.479713
-0.448512
-0.405424
-0.353879
-0.297525
-0.240068
-0.18429
-0.133382
0.0716433
0.0984747
0.127664
0.156674
0.183497
0.205211
0.219274
0.223282
0.215575
0.194614
0.159715
0.111199
0.0504608
-0.0200719
-0.0970834
-0.176614
-0.254379
-0.326129
-0.388012
-0.436873
-0.470501
-0.487764
-0.488652
-0.474195
-0.446322
-0.406457
-0.357623
-0.303136
-0.246628
-0.190842
-0.139157
0.0859998
0.114755
0.144214
0.17123
0.193911
0.209612
0.216501
0.213157
0.199204
0.174084
0.137909
0.0914819
0.036297
-0.0255259
-0.0913556
-0.158213
-0.222971
-0.282577
-0.334273
-0.375779
-0.405429
-0.422263
-0.426068
-0.417343
-0.397241
-0.366288
-0.326538
-0.280444
-0.231171
-0.181091
-0.133588
0.101573
0.131621
0.159974
0.182855
0.198607
0.205078
0.201505
0.187905
0.16568
0.135664
0.0990646
0.0573228
0.0120132
-0.035257
-0.0829115
-0.129451
-0.173479
-0.213728
-0.249075
-0.278538
-0.301284
-0.316636
-0.324113
-0.323458
-0.314716
-0.297143
-0.271367
-0.238557
-0.20111
-0.160779
-0.120883
0.118741
0.149987
0.176638
0.194271
0.201519
0.19682
0.180692
0.154848
0.122773
0.0869317
0.0498147
0.013595
-0.0200796
-0.0502271
-0.0765352
-0.0992651
-0.119071
-0.136788
-0.15321
-0.168874
-0.183895
-0.197892
-0.210027
-0.219115
-0.223851
-0.221932
-0.212292
-0.194614
-0.170404
-0.140724
-0.108902
0.136817
0.169493
0.194508
0.206838
0.205392
0.189203
0.1601
0.121519
0.079076
0.036898
-0.0012341
-0.0324191
-0.05496
-0.0685394
-0.0741576
-0.0738864
-0.0704698
-0.0668688
-0.065789
-0.0692405
-0.0782144
-0.092516
-0.11082
-0.130872
-0.149887
-0.163781
-0.169744
-0.166002
-0.153233
-0.131932
-0.105638
0.153461
0.187688
0.211476
0.219337
0.21041
0.184257
0.143857
0.0941469
0.0426172
-0.00517557
-0.0443589
-0.0714513
-0.0847817
-0.0846892
-0.0733929
-0.0546025
-0.0329169
-0.0131433
0.000400711
0.00452642
-0.00236094
-0.0200305
-0.046508
-0.0783765
-0.111351
-0.139463
-0.158319
-0.164928
-0.159369
-0.141843
-0.116386
0.164493
0.199665
0.222401
0.227013
0.212836
0.179873
0.13194
0.0750346
0.0179484
-0.0328038
-0.0716746
-0.0949045
-0.101001
-0.0909394
-0.0679693
-0.0371002
-0.00433625
0.024183
0.0430528
0.0483943
0.0384149
0.0136713
-0.0230564
-0.0671677
-0.112979
-0.152688
-0.180653
-0.193044
-0.189653
-0.170728
-0.141059
0.16446
0.198688
0.219691
0.221985
0.205123
0.169478
0.119314
0.0610961
0.00409986
-0.0448637
-0.0801566
-0.0981724
-0.0978246
-0.0807216
-0.0509094
-0.014269
0.0223589
0.0521443
0.0692366
0.0696381
0.0518019
0.0168851
-0.0314344
-0.0874565
-0.144327
-0.192675
-0.226039
-0.240185
-0.234914
-0.210816
-0.17354
0.147987
0.177863
0.195182
0.195178
0.177719
0.143533
0.0969336
0.0442172
-0.00581416
-0.0467969
-0.0736626
-0.0834497
-0.0757431
-0.0527925
-0.0192003
0.0187308
0.0539157
0.0794884
0.0897864
0.0812268
0.0528786
0.00666969
-0.0528614
-0.119139
-0.184503
-0.238509
-0.274355
-0.287801
-0.278853
-0.248594
-0.203414
0.111666
0.132564
0.143007
0.13951
0.122404
0.0928046
0.0547489
0.0137885
-0.0226954
-0.0494799
-0.0626798
-0.0604281
-0.0432151
-0.013923
0.0225278
0.0598367
0.0912117
0.110322
0.112212
0.0941069
0.0558982
0.000279233
-0.067562
-0.140558
-0.210731
-0.267288
-0.303555
-0.315603
-0.303705
-0.269392
-0.219418
0.0558977
0.0628707
0.0626199
0.05342
0.0362293
0.0126051
-0.0139228
-0.0389685
-0.0573411
-0.0654756
-0.0611107
-0.0437735
-0.0149788
0.0218332
0.0616728
0.0986201
0.126615
0.140287
0.135732
0.111168
0.0673103
0.00740944
-0.0630882
-0.137152
-0.207082
-0.262601
-0.29761
-0.308719
-0.296385
-0.262383
-0.213236
-0.0140189
-0.0248912
-0.0391768
-0.0565545
-0.075341
-0.0935105
-0.108159
-0.11629
-0.115352
-0.103682
-0.0808156
-0.0477373
-0.00692502
0.0378063
0.0816768
0.119478
0.146207
0.157716
0.151292
0.126132
0.0835686
0.0270286
-0.0383117
-0.10608
-0.169491
-0.219683
-0.251539
-0.26235
-0.252594
-0.22398
-0.182108
-0.0881486
-0.118345
-0.148227
-0.175433
-0.197582
-0.212231
-0.217133
-0.210698
-0.193056
-0.164384
-0.125879
-0.0797771
-0.0292546
0.0218042
0.0691428
0.108548
0.136287
0.149539
0.146752
0.127912
0.094624
0.0500093
-0.00160432
-0.0551249
-0.105281
-0.145419
-0.171744
-0.182314
-0.177432
-0.158435
-0.129343
-0.15375
-0.201305
-0.245517
-0.28232
-0.308821
-0.322308
-0.321178
-0.305086
-0.276479
-0.237027
-0.189179
-0.135986
-0.0808861
-0.0274381
0.0209477
0.0612761
0.0911883
0.109162
0.114644
0.10812
0.0910673
0.0658249
0.0353547
0.00295525
-0.0280786
-0.0538481
-0.0721192
-0.0817565
-0.0827232
-0.075748
-0.0627779
-0.198329
-0.257675
-0.311777
-0.355479
-0.385705
-0.399717
-0.396517
-0.376733
-0.344431
-0.302231
-0.253246
-0.200765
-0.147973
-0.0976947
-0.0522175
-0.0131873
0.0184008
0.0421861
0.058373
0.0676269
0.0709425
0.069505
0.0645651
0.0573284
0.0488799
0.0401544
0.0317399
0.0239816
0.0173613
0.0118815
0.00788632
-0.213061
-0.275913
-0.33289
-0.378535
-0.409987
-0.424774
-0.422458
-0.40431
-0.375134
-0.337881
-0.295695
-0.251519
-0.207811
-0.166334
-0.128096
-0.0933929
-0.0619889
-0.0333099
-0.00667137
0.0184923
0.042446
0.065044
0.0857288
0.103599
0.117585
0.125828
0.127378
0.121882
0.110304
0.0933836
0.0736741
-0.195469
-0.252598
-0.304356
-0.345774
-0.374585
-0.388848
-0.388629
-0.375515
-0.354153
-0.327264
-0.29747
-0.26691
-0.236994
-0.208276
-0.180496
-0.152768
-0.12388
-0.0926206
-0.0581034
-0.0200667
0.0209357
0.063475
0.105365
0.143887
0.17617
0.198084
0.207452
0.203403
0.187368
0.160731
0.127897
-0.150389
-0.193801
-0.233134
-0.264534
-0.286593
-0.298069
-0.299448
-0.292339
-0.280502
-0.266009
-0.250602
-0.23537
-0.220583
-0.205656
-0.189284
-0.169716
-0.145132
-0.114023
-0.0755552
-0.0298804
0.0216997
0.0767321
0.131828
0.182996
0.226162
0.255717
0.268736
0.264087
0.243606
0.209173
0.166482
-0.0887636
-0.113611
-0.13602
-0.153609
-0.165898
-0.172379
-0.173829
-0.171644
-0.16824
-0.164823
-0.16213
-0.160202
-0.158315
-0.155029
-0.14838
-0.136196
-0.116473
-0.0877554
-0.049468
-0.00219157
0.0522225
0.110708
0.169257
0.223314
0.268335
0.298158
0.309677
0.301792
0.276654
0.236452
0.187503
-0.0245738
-0.0301785
-0.034932
-0.0379546
-0.0395741
-0.0399082
-0.0398475
-0.0404069
-0.0425307
-0.0465436
-0.0522649
-0.0589032
-0.0650725
-0.0688988
-0.0682406
-0.0609817
-0.0453567
-0.0202654
0.0144672
0.0578914
0.107879
0.161224
0.21393
0.261597
0.299953
0.32319
0.328563
0.31527
0.285659
0.242026
0.190654
0.0291145
0.0394603
0.0494085
0.0585838
0.0661232
0.0715004
0.0738987
0.072782
0.0685149
0.061512
0.0526247
0.0431368
0.0346836
0.0291145
0.0282908
0.0338541
0.0469976
0.0682545
0.0973419
0.133054
0.173272
0.215083
0.255054
0.289547
0.31516
0.327176
0.323618
0.304164
0.271222
0.226991
0.177161
0.063657
0.084015
0.10319
0.119977
0.13331
0.142511
0.147002
0.146748
0.143058
0.136852
0.129339
0.121934
0.116137
0.113395
0.114952
0.121705
0.13409
0.151991
0.174694
0.200876
0.228666
0.255767
0.279671
0.297886
0.30824
0.307557
0.294827
0.270273
0.236204
0.194551
0.150014
0.0765768
0.100279
0.122485
0.141616
0.156703
0.167132
0.172661
0.173687
0.172014
0.168802
0.165322
0.162828
0.162422
0.164945
0.170888
0.180342
0.192993
0.208145
0.224766
0.241558
0.257048
0.269702
0.278063
0.280881
0.277263
0.26567
0.246025
0.219011
0.186704
0.15063
0.114344
0.0715298
0.0931396
0.113285
0.130416
0.143845
0.153148
0.158418
0.16035
0.160824
0.161005
0.162015
0.16478
0.169916
0.177648
0.18779
0.199766
0.212694
0.225483
0.236951
0.245943
0.251434
0.25262
0.248989
0.240356
0.226888
0.208443
0.185645
0.159472
0.131642
0.103236
0.0766495
0.0555171
0.0718953
0.0870454
0.0997309
0.109578
0.116395
0.120482
0.122646
0.124514
0.127083
0.131204
0.137448
0.146013
0.156683
0.168844
0.18156
0.19369
0.204026
0.211437
0.214997
0.214088
0.208458
0.198246
0.183947
0.166365
0.146245
0.124564
0.102338
0.0808771
0.060839
0.0435972
0.0363699
0.0468261
0.0564036
0.0642481
0.0702394
0.0743126
0.0768787
0.0786547
0.080837
0.0841584
0.0891822
0.0961936
0.105142
0.11562
0.126904
0.138034
0.147935
0.155549
0.159958
0.160508
0.156883
0.149144
0.137719
0.12335
0.107008
0.0897445
0.0725141
0.0562195
0.0417201
0.0293553
0.019748
0.0199348
0.0254863
0.030518
0.0345452
0.0375602
0.0395288
0.040812
0.0419398
0.0436314
0.0463389
0.0503788
0.0558631
0.0626655
0.0704157
0.0785351
0.086302
0.0929394
0.0977097
0.100007
0.0994386
0.0958731
0.0894639
0.0806292
0.0700048
0.0583687
0.0465986
0.0354247
0.025448
0.0171542
0.0107156
0.00625713
0.0245331
0.0361507
0.0501004
0.0655826
0.0816138
0.0966136
0.108951
0.116873
0.118757
0.113241
0.0994899
0.0773428
0.0473918
0.010975
-0.0299164
-0.0728106
-0.114988
-0.153742
-0.186643
-0.211763
-0.227847
-0.234406
-0.231721
-0.220765
-0.203053
-0.180127
-0.153958
-0.12646
-0.0995684
-0.0745497
-0.0525953
0.0400554
0.0584252
0.0801239