# vtk DataFile Version 2.0
Func
ASCII
DATASET RECTILINEAR_GRID
DIMENSIONS 31 31 31
X_COORDINATES 31 double
-9.67742
-9.03226
-8.3871
-7.74194
-7.09677
-6.45161
-5.80645
-5.16129
-4.51613
-3.87097
-3.22581
-2.58065
-1.93548
-1.29032
-0.645161
0
0.645161
1.29032
1.93548
2.58065
3.22581
3.87097
4.51613
5.16129
5.80645
6.45161
7.09677
7.74194
8.3871
9.03226
9.67742
Y_COORDINATES 31 double
-9.67742
-9.03226
-8.3871
-7.74194
-7.09677
-6.45161
-5.80645
-5.16129
-4.51613
-3.87097
-3.22581
-2.58065
-1.93548
-1.29032
-0.645161
0
0.645161
1.29032
1.93548
2.58065
3.22581
3.87097
4.51613
5.16129
5.80645
6.45161
7.09677
7.74194
8.3871
9.03226
9.67742
Z_COORDINATES 31 double
-9.67742
-9.03226
-8.3871
-7.74194
-7.09677
-6.45161
-5.80645
-5.16129
-4.51613
-3.87097
-3.22581
-2.58065
-1.93548
-1.29032
-0.645161
0
0.645161
1.29032
1.93548
2.58065
3.22581
3.87097
4.51613
5.16129
5.80645
6.45161
7.09677
7.74194
8.3871
9.03226
9.67742
POINT_DATA 29791
SCALARS data double 1
LOOKUP_TABLE default
0.0144416
0.0204304
0.0274599
0.0353122
0.0438764
0.0528801
0.0620678
0.0711034
0.0797055
0.0874521
0.0939098
0.0986595
0.101329
0.101623
0.0993539
0.0944644
0.0870442
0.0773355
0.0657265
0.0527369
0.0389897
0.0251734
0.01199
0.000104676
-0.00991473
-0.0174497
-0.0222173
-0.0241398
-0.0236292
-0.0210074
-0.0171354
0.0248119
0.0343976
0.0453135
0.0570218
0.0693382
0.0818614
0.0942278
0.106022
0.117004
0.126691
0.134595
0.140241
0.143202
0.143134
0.139813
0.133164
0.123288
0.110471
0.095185
0.0780683
0.0598994
0.0415494
0.0239178
0.00786619
-0.00585572
-0.0164221
-0.0234829
-0.0268808
-0.0270982
-0.0246075
-0.0202566
0.037717
0.051163
0.0657858
0.080648
0.0954197
0.109542
0.122638
0.134371
0.144769
0.153512
0.16029
0.164788
0.166716
0.165821
0.161922
0.154941
0.144932
0.132107
0.116842
0.0996769
0.0812968
0.062497
0.0441263
0.0270231
0.0119452
-0.000302376
-0.00927295
-0.0148076
-0.017235
-0.0169455
-0.0146117
0.0514319
0.0683771
0.0858042
0.102302
0.117371
0.13028
0.140792
0.148825
0.154931
0.159213
0.161798
0.162789
0.16224
0.160146
0.156452
0.15108
0.143967
0.135099
0.124544
0.112477
0.0991956
0.0851102
0.0707244
0.0565937
0.0432764
0.0313089
0.0211473
0.0130866
0.00708029
0.0030393
0.000715212
0.0636233
0.0831255
0.101894
0.118108
0.131099
0.140023
0.144882
0.146014
0.144672
0.141584
0.137523
0.13319
0.129139
0.125718
0.123051
0.121052
0.119466
0.11793
0.116028
0.113361
0.109604
0.104546
0.0981193
0.0903971
0.08158
0.0717675
0.06139
0.0508706
0.0406097
0.0309514
0.0221956
0.0718332
0.092377
0.110774
0.124879
0.133907
0.136958
0.134353
0.126924
0.116659
0.104978
0.0933554
0.083138
0.0754103
0.0708852
0.0698574
0.0722038
0.0774365
0.0847784
0.0932634
0.101842
0.109488
0.115299
0.118571
0.118842
0.115916
0.109432
0.0997779
0.0875149
0.0735118
0.0585739
0.0435399
0.0741257
0.0938371
0.110121
0.120618
0.124509
0.120921
0.110506
0.0945738
0.0757279
0.0560022
0.037482
0.0220621
0.0112653
0.0060904
0.0069431
0.0136302
0.0254216
0.0411491
0.0593405
0.0783643
0.096584
0.112499
0.124867
0.132784
0.13573
0.133001
0.124951
0.112256
0.0961624
0.0778391
0.0585877
0.0703548
0.0876413
0.100597
0.106803
0.105495
0.0958984
0.0789431
0.0563048
0.0309627
0.00536147
-0.0180213
-0.0369536
-0.0496616
-0.055005
-0.0525558
-0.0426036
-0.0260821
-0.00445067
0.0204669
0.0466562
0.0720972
0.0949322
0.113613
0.126998
0.134409
0.135017
0.129168
0.11761
0.101778
0.0830132
0.0628365
0.0621002
0.0760815
0.0853493
0.0875699
0.0820975
0.0682967
0.0472674
0.0208731
-0.00782464
-0.0362397
-0.0617802
-0.0821385
-0.0955106
-0.100774
-0.097561
-0.0862597
-0.0679257
-0.0441517
-0.0168916
0.0117281
0.0396027
0.0648238
0.0858262
0.101481
0.111141
0.114103
0.110725
0.101773
0.0886297
0.072587
0.0550859
0.0521569
0.0629471
0.0691723
0.0686955
0.0610098
0.045618
0.0236447
-0.00307012
-0.0316594
-0.0596689
-0.0846659
-0.104515
-0.117581
-0.122889
-0.120186
-0.109923
-0.0931648
-0.0714542
-0.0466334
-0.0206604
0.00457508
0.0274104
0.0465342
0.0610567
0.0705319
0.0745769
0.0735838
0.068262
0.0597252
0.0490065
0.037178
0.0433633
0.0519605
0.0565732
0.0553337
0.0478431
0.033705
0.0139164
-0.00990992
-0.0353113
-0.06019
-0.0824885
-0.100428
-0.112679
-0.118488
-0.117721
-0.110833
-0.0987742
-0.0828589
-0.0646061
-0.0455722
-0.0271964
-0.0106734
0.00313124
0.0137177
0.0209397
0.024843
0.0258474
0.0245452
0.0216148
0.0176906
0.0132621
0.0373415
0.0451358
0.0497996
0.0497776
0.0447187
0.0342735
0.0191829
0.000670773
-0.0193284
-0.0392195
-0.0574515
-0.0727039
-0.0840129
-0.0908633
-0.0932072
-0.0914265
-0.0862455
-0.0786159
-0.0695847
-0.0601605
-0.0511978
-0.0433126
-0.0368428
-0.0318484
-0.0281585
-0.0253034
-0.0228605
-0.020404
-0.0177658
-0.0147652
-0.0115858
0.033732
0.0418041
0.0477133
0.0502522
0.0490611
0.0437967
0.0348642
0.0230026
0.00956926
-0.00440755
-0.0179321
-0.0301679
-0.0405171
-0.0486747
-0.054629
-0.058623
-0.0610796
-0.0625131
-0.0634345
-0.0642582
-0.0652317
-0.0663956
-0.067587
-0.068472
-0.0686194
-0.0672345
-0.0639329
-0.0584825
-0.0512061
-0.0423476
-0.0327168
0.0302974
0.0387933
0.046087
0.0513644
0.0542382
0.0543691
0.0518098
0.0467927
0.0400955
0.0321829
0.0235085
0.0144503
0.00527532
-0.00387937
-0.0129949
-0.0221377
-0.0314044
-0.0408667
-0.0505182
-0.0602253
-0.0697028
-0.0785128
-0.0861037
-0.0918639
-0.0952089
-0.0951787
-0.091474
-0.0840609
-0.0736516
-0.0608203
-0.0468345
0.0239261
0.0317973
0.0393487
0.0462235
0.0520407
0.0565115
0.0593804
0.0604184
0.0598391
0.0575924
0.0536399
0.0479511
0.0405079
0.0313159
0.0204222
0.00793739
-0.00593478
-0.0208784
-0.0364551
-0.052099
-0.0671323
-0.080797
-0.0923153
-0.100953
-0.106101
-0.106819
-0.102937
-0.0946038
-0.0827665
-0.0681971
-0.0523689
0.0121377
0.0173971
0.0231078
0.0294411
0.0361008
0.0429299
0.0494517
0.0550683
0.0594489
0.0621011
0.0625632
0.0604549
0.0555179
0.0476509
0.0369294
0.0236129
0.00814463
-0.00886527
-0.026671
-0.0444263
-0.0612335
-0.0761979
-0.0884969
-0.0974379
-0.102523
-0.103004
-0.0988857
-0.0904708
-0.0787685
-0.0646057
-0.0493791
-0.00557423
-0.00514429
-0.00361914
-0.000247753
0.00484842
0.0117288
0.0197949
0.0281909
0.0360662
0.0425701
0.0468946
0.048375
0.0465597
0.0412642
0.0325888
0.0209068
0.00683358
-0.00882686
-0.0251509
-0.0411661
-0.0559262
-0.0685795
-0.0784316
-0.0849879
-0.0879847
-0.0870212
-0.0823173
-0.0743049
-0.0638977
-0.0518498
-0.0392221
-0.0272068
-0.0331681
-0.037532
-0.038962
-0.0373467
-0.0323618
-0.0246486
-0.0152222
-0.00541228
0.00365711
0.0109155
0.0154893
0.0167941
0.0146027
0.00905485
0.000624793
-0.00994402
-0.021728
-0.0337272
-0.0449679
-0.0545969
-0.0619545
-0.0666216
-0.0684352
-0.0674733
-0.0638112
-0.0579231
-0.0503621
-0.041836
-0.0329328
-0.0241901
-0.0488419
-0.061414
-0.0720396
-0.0788518
-0.0815137
-0.0794521
-0.0733175
-0.0642255
-0.0539206
-0.0437227
-0.0348789
-0.0283859
-0.0248796
-0.0245626
-0.0272059
-0.0322067
-0.0386908
-0.0456384
-0.0520213
-0.0569348
-0.0597069
-0.0599693
-0.0576817
-0.0531113
-0.0467649
-0.0392845
-0.0314443
-0.0239334
-0.0172125
-0.0116603
-0.00720776
-0.0661814
-0.0840732
-0.0998151
-0.111118
-0.117498
-0.118218
-0.11396
-0.105933
-0.0962177
-0.0862708
-0.0774418
-0.0707638
-0.0668338
-0.0657401
-0.0670829
-0.0700615
-0.073617
-0.0765968
-0.0779276
-0.0767754
-0.0726675
-0.0655606
-0.055836
-0.0442417
-0.0317662
-0.0196618
-0.00904686
-0.000785934
0.00487059
0.00773694
0.00845385
-0.0763844
-0.0972524
-0.115867
-0.129649
-0.138093
-0.140424
-0.137422
-0.130436
-0.121808
-0.113112
-0.105752
-0.100737
-0.0985496
-0.0990783
-0.101663
-0.105216
-0.108404
-0.109857
-0.108381
-0.103144
-0.0938172
-0.0806374
-0.0643782
-0.0462537
-0.0277369
-0.0106696
0.00345435
0.0135415
0.0194425
0.0210899
0.0195479
-0.0793419
-0.100702
-0.119716
-0.133632
-0.142042
-0.144259
-0.141246
-0.134568
-0.126794
-0.119633
-0.114555
-0.11253
-0.113898
-0.118306
-0.124775
-0.131854
-0.137846
-0.141064
-0.140076
-0.133935
-0.122333
-0.105666
-0.0849922
-0.0619021
-0.0382906
-0.0164892
0.00163072
0.0146976
0.0225047
0.0249812
0.0233821
-0.0777788
-0.0979855
-0.115652
-0.127921
-0.13455
-0.13501
-0.130518
-0.12293
-0.115063
-0.108827
-0.105818
-0.107024
-0.112689
-0.122245
-0.134399
-0.147319
-0.158895
-0.167037
-0.169967
-0.166478
-0.156119
-0.13927
-0.117098
-0.0914058
-0.0643783
-0.038656
-0.0164463
0.000578121
0.01198
0.0175415
0.0184348
-0.0759796
-0.0948098
-0.110717
-0.120751
-0.124808
-0.122518
-0.115367
-0.105549
-0.0961923
-0.0894954
-0.0872808
-0.0906707
-0.0999244
-0.114369
-0.132487
-0.152122
-0.170773
-0.185924
-0.195376
-0.197543
-0.191667
-0.177916
-0.157348
-0.131769
-0.103463
-0.075139
-0.0492464
-0.0277415
-0.0114346
-0.000822674
0.00492383
-0.0776721
-0.0962371
-0.111296
-0.119778
-0.121619
-0.116527
-0.10622
-0.0932027
-0.0809887
-0.0721313
-0.0687805
-0.072321
-0.0831817
-0.100744
-0.123425
-0.148882
-0.174327
-0.196874
-0.213909
-0.223407
-0.224186
-0.216032
-0.199695
-0.17676
-0.149398
-0.120123
-0.0914929
-0.065675
-0.0439282
-0.0271125
-0.0149324
-0.0842592
-0.104288
-0.120121
-0.128538
-0.129377
-0.122305
-0.10917
-0.0927031
-0.0768156
-0.0644228
-0.0580498
-0.0594377
-0.0693191
-0.0872976
-0.111907
-0.140809
-0.171096
-0.199656
-0.223545
-0.240337
-0.248392
-0.247024
-0.236529
-0.218093
-0.193579
-0.165086
-0.135115
-0.105932
-0.0792287
-0.0562374
-0.0372831
-0.0929838
-0.115609
-0.13341
-0.143109
-0.144341
-0.136639
-0.121836
-0.102724
-0.0834942
-0.0673144
-0.0570156
-0.0546797
-0.0613891
-0.0770757
-0.100551
-0.129674
-0.161637
-0.193311
-0.221616
-0.243864
-0.258051
-0.263045
-0.258654
-0.245577
-0.225237
-0.199176
-0.169677
-0.138956
-0.109012
-0.0813673
-0.0568998
-0.0989566
-0.123758
-0.14353
-0.155001
-0.157589
-0.150652
-0.135868
-0.115876
-0.0948877
-0.0760978
-0.0624469
-0.0562149
-0.0587597
-0.0703476
-0.090153
-0.11639
-0.146559
-0.177759
-0.207017
-0.231624
-0.249408
-0.258935
-0.259609
-0.251662
-0.23604
-0.213702
-0.18658
-0.156678
-0.126107
-0.0965172
-0.0691981
-0.0956686
-0.12016
-0.140067
-0.152342
-0.156253
-0.151111
-0.138224
-0.119863
-0.0998546
-0.0810907
-0.066298
-0.0576764
-0.0566546
-0.0637227
-0.0784107
-0.0993797
-0.124619
-0.151695
-0.178035
-0.201201
-0.21914
-0.230369
-0.234081
-0.230167
-0.21915
-0.201487
-0.178661
-0.152365
-0.12452
-0.0966962
-0.0703295
-0.0800028
-0.100907
-0.118281
-0.129536
-0.133989
-0.130858
-0.121255
-0.106824
-0.0905863
-0.074819
-0.0617127
-0.0530842
-0.050183
-0.0535475
-0.0629785
-0.0775937
-0.095966
-0.116303
-0.136653
-0.155117
-0.170036
-0.180136
-0.184633
-0.183256
-0.176225
-0.163667
-0.146625
-0.126241
-0.10412
-0.0815203
-0.0597667
-0.0551613
-0.0697428
-0.0822637
-0.0906722
-0.0945613
-0.093261
-0.0874592
-0.0782647
-0.0676084
-0.0569686
-0.0477953
-0.0413147
-0.0384045
-0.0394937
-0.0445395
-0.053056
-0.0641947
-0.0768522
-0.0897994
-0.10181
-0.111784
-0.118842
-0.122399
-0.122186
-0.118252
-0.110583
-0.0997387
-0.0864012
-0.0716893
-0.0563978
-0.0415916
0.0141555
0.0206107
0.0284059
0.0375431
0.0478776
0.0591248
0.0709665
0.0828957
0.0944386
0.104956
0.11378
0.120259
0.123807
0.123961
0.120419
0.113084
0.102086
0.0877886
0.0707843
0.0518676
0.0319927
0.0122137
-0.00639751
-0.0228289
-0.0362235
-0.0455744
-0.0505133
-0.0510058
-0.047716
-0.0412092
-0.0328815
0.0260556
0.0366391
0.0488878
0.0624386
0.0770666
0.0923607
0.107874
0.122981
0.137258
0.149984
0.160414
0.167811
0.17151
0.170972
0.165839
0.155985
0.141551
0.122965
0.100934
0.0764275
0.0506228
0.024838
0.000429629
-0.0213078
-0.0392594
-0.0520775
-0.0593471
-0.0609673
-0.0576892
-0.0502963
-0.0402802
0.0427926
0.0582545
0.0750478
0.0923073
0.109606
0.126356
0.142129
0.156395
0.16914
0.1799
0.188197
0.193546
0.195481
0.1936
0.187607
0.177364
0.162937
0.144635
0.123014
0.0988851
0.0732816
0.0473997
0.0225134
-0.000124228
-0.0193935
-0.0339733
-0.0432919
-0.0472889
-0.0465027
-0.0416044
-0.0339049
0.0625671
0.0829664
0.103585
0.122908
0.140246
0.154824
0.166406
0.174828
0.180883
0.184746
0.186608
0.186601
0.18478
0.181103
0.175458
0.167699
0.157705
0.145435
0.130979
0.114597
0.0967379
0.078027
0.0592268
0.0411758
0.0247024
0.0107205
-0.0001425
-0.00758801
-0.0118077
-0.013029
-0.0119883
0.0818204
0.106339
0.129248
0.148405
0.162856
0.171693
0.175027
0.173284
0.168353
0.161349
0.153428
0.14562
0.13872
0.133207
0.129221
0.126587
0.124885
0.123534
0.121894
0.119363
0.115462
0.109902
0.102606
0.0937166
0.0835522
0.0723662
0.0608227
0.0494614
0.0386901
0.0289314
0.0202854
0.0964998
0.123384
0.146574
0.163406
0.172725
0.17356
0.166465
0.152579
0.134928
0.115662
0.0969809
0.0808691
0.0688993
0.062076
0.060772
0.0647337
0.0731688
0.0848672
0.0983567
0.112064
0.124483
0.134311
0.140561
0.142616
0.140245
0.13302
0.121634
0.1069
0.0898674
0.0716537
0.0532091
0.103089
0.129841
0.15105
0.16369
0.166524
0.158608
0.140965
0.115423
0.0859608
0.0556349
0.0275421
0.0044667
-0.0113901
-0.0186272
-0.0167378
-0.00611202
0.0120698
0.0359956
0.0634317
0.0919442
0.119134
0.142847
0.161338
0.173384
0.178333
0.175263
0.164909
0.148327
0.127102
0.10291
0.077425
0.100502
0.124756
0.142214
0.14973
0.146126
0.130565
0.10447
0.070206
0.0323208
-0.00553614
-0.0397092
-0.0669438
-0.0847022
-0.0914133
-0.0865799
-0.0707745
-0.0455125
-0.0130594
0.0238218
0.0621378
0.0989459
0.131602
0.157964
0.176519
0.186446
0.186683
0.178021
0.161689
0.139567
0.113604
0.0858317
0.0903742
0.110572
0.12352
0.126189
0.117568
0.0969866
0.066113
0.0275944
-0.0139139
-0.0545816
-0.0906207
-0.118708
-0.136311
-0.141936
-0.135227
-0.116945
-0.0888236
-0.0533461
-0.0134736
0.0276472
0.0669787
0.101848
0.130146
0.150445
0.162044
0.164125
0.157546
0.143603
0.12416
0.101108
0.0763737
0.0763448
0.0922059
0.101167
0.100506
0.0894263
0.0674288
0.0362283
-0.00155639
-0.0415973
-0.0802971
-0.114151
-0.140146
-0.156055
-0.160662
-0.153834
-0.136475
-0.110364
-0.0779316
-0.0419766
-0.00538215
0.0291626
0.0593923
0.0836288
0.100862
0.110747
0.113018
0.108595
0.0987179
0.0849345
0.0687665
0.0516032
0.0624756
0.0749501
0.0815214
0.079888
0.0694499
0.0498465
0.0226182
-0.00994501
-0.0441699
-0.0770289
-0.105624
-0.127525
-0.141018
-0.145274
-0.140386
-0.127306
-0.107675
-0.0836033
-0.0574145
-0.0313858
-0.007515
0.0126588
0.0281595
0.0386003
0.0441285
0.0451807
0.0427028
0.0377706
0.0313853
0.0244842
0.0176057
0.0514068
0.062078
0.0682446
0.0680842
0.0611231
0.047088
0.0271547
0.00304325
-0.0224173
-0.0469835
-0.0685537
-0.0854289
-0.0964882
-0.101303
-0.100137
-0.0938694
-0.0838288
-0.0716031
-0.0588212
-0.0469433
-0.0370892
-0.0299231
-0.0256178
-0.023885
-0.0240831
-0.0250997
-0.026018
-0.0260134
-0.0247467
-0.0219511
-0.0180611
0.04315
0.0533128
0.0605276
0.0634822
0.0617587
0.0551302
0.0442864
0.0302341
0.0148878
-0.000380542
-0.0143285
-0.0260127
-0.0348923
-0.0408831
-0.0443307
-0.045927
-0.0465697
-0.0472072
-0.0486792
-0.0515671
-0.0560923
-0.0620676
-0.0689252
-0.0757947
-0.0816498
-0.0848782
-0.0846637
-0.0804816
-0.0726434
-0.0615115
-0.0484101
0.0350968
0.0449023
0.0532884
0.0594947
0.0631312
0.064015
0.0623205
0.0583113
0.0529916
0.046877
0.0403846
0.0337566
0.0270249
0.0200115
0.0123726
0.00367445
-0.00649958
-0.0184436
-0.0322341
-0.0476486
-0.0641314
-0.0808052
-0.096549
-0.110106
-0.120248
-0.125133
-0.124116
-0.116984
-0.104574
-0.0877359
-0.0684227
0.0233243
0.031399
0.0394456
0.0473243
0.0547122
0.0615163
0.0674586
0.0721347
0.0756716
0.0778116
0.0782366
0.0765807
0.0724557
0.065496
0.0554115
0.042044
0.0254336
0.00586727
-0.0160927
-0.0395938
-0.0635205
-0.0865533
-0.107276
-0.124295
-0.136392
-0.141796
-0.140101
-0.131378
-0.11679
-0.0974731
-0.075631
0.00466484
0.00843139
0.0133742
0.0200577
0.0283202
0.0382392
0.0492131
0.0603188
0.0708444
0.0798782
0.0864833
0.0897914
0.0890807
0.0838551
0.0738966
0.0592973
0.0404768
0.0181732
-0.00659282
-0.0325654
-0.0583306
-0.082408
-0.103367
-0.119935
-0.131114
-0.135491
-0.132956
-0.123822
-0.109343
-0.0907227
-0.0699991
-0.021405
-0.0247789
-0.0259805
-0.0236819
-0.0177761
-0.00793567
0.00506159
0.0199519
0.0352305
0.0494653
0.0612288
0.069263
0.0725996
0.0706643
0.0633213
0.0508748
0.0340345
0.0138481
-0.0083935
-0.0312595
-0.0532948
-0.0731289
-0.0895814
-0.101738
-0.109016
-0.11061
-0.106751
-0.0979569
-0.0853575
-0.0700259
-0.0534556
-0.0519911
-0.0643898
-0.0738445
-0.0782717
-0.0772331
-0.0701159
-0.0577588
-0.0416119
-0.0239015
-0.00644602
0.00897101
0.0208259
0.0280079
0.0299366
0.0265919
0.0184801
0.00654302
-0.00796674
-0.0236362
-0.0390442
-0.0529055
-0.0641841
-0.0721703
-0.076512
-0.0772015
-0.0742459
-0.0682692
-0.0599749
-0.0502177
-0.0397953
-0.0293806
-0.0816046
-0.103037
-0.120986
-0.132713
-0.137476
-0.134414
-0.124384
-0.108935
-0.0909077
-0.0723867
-0.0553773
-0.0415329
-0.0319793
-0.027195
-0.0270042
-0.0306528
-0.0369591
-0.044498
-0.0518044
-0.0575713
-0.0608141
-0.0609796
-0.0579828
-0.0521807
-0.0442713
-0.0352131
-0.0260844
-0.0177919
-0.0108599
-0.00574384
-0.00217046
-0.104332
-0.132728
-0.157312
-0.174874
-0.184486
-0.185157
-0.177805
-0.16408
-0.147306
-0.129746
-0.113513
-0.10026
-0.0909919
-0.0859504
-0.0846421
-0.0859614
-0.0884068
-0.0903269
-0.0901791
-0.0867724
-0.0794494
-0.0681872
-0.0535881
-0.0367898
-0.0192724
-0.00300831
0.0104061
0.0198056
0.0249423
0.0256791
0.0231867
-0.11644
-0.148326
-0.176208
-0.196615
-0.208613
-0.211238
-0.205587
-0.193492
-0.178643
-0.163452
-0.150076
-0.14008
-0.13424
-0.132439
-0.133739
-0.136553
-0.138931
-0.138871
-0.134639
-0.125058
-0.109712
-0.0890369
-0.0642723
-0.0373091
-0.0104074
0.0134889
0.0322146
0.0442671
0.0495216
0.0480424
0.0416821
-0.118163
-0.149974
-0.177587
-0.197447
-0.208779
-0.2108
-0.204916
-0.193281
-0.179895
-0.167354
-0.157882
-0.152949
-0.15307
-0.157721
-0.165437
-0.174047
-0.181025
-0.183869
-0.180485
-0.169528
-0.150632
-0.124506
-0.0928548
-0.0581784
-0.0234135
0.00769396
0.032399
0.0487844
0.0566286
0.0560074
0.0491087
-0.1138
-0.143272
-0.168186
-0.184984
-0.193136
-0.192115
-0.183751
-0.170642
-0.157138
-0.146131
-0.140014
-0.140264
-0.14722
-0.160006
-0.176655
-0.194395
-0.210052
-0.220507
-0.223135
-0.216203
-0.199142
-0.172657
-0.138642
-0.099946
-0.059971
-0.022967
0.00779254
0.0299347
0.0429037
0.0465628
0.0430187
-0.109806
-0.13679
-0.158571
-0.171554
-0.175411
-0.169864
-0.157179
-0.140473
-0.124562
-0.112775
-0.107845
-0.111441
-0.12392
-0.144231
-0.170054
-0.198113
-0.224631
-0.245832
-0.258449
-0.260175
-0.249976
-0.228245
-0.196724
-0.158278
-0.116472
-0.0756669
-0.039536
-0.0108903
0.00919002
0.0201469
0.0236022
-0.111694
-0.137999
-0.158167
-0.168453
-0.168587
-0.158424
-0.140594
-0.118695
-0.0981356
-0.0827964
-0.0759171
-0.0795723
-0.0943804
-0.119375
-0.152134
-0.189096
-0.226038
-0.258619
-0.282929
-0.295988
-0.296113
-0.283111
-0.258251
-0.224063
-0.183937
-0.141926
-0.101902
-0.0670167
-0.038972
-0.0188821
-0.00591858
-0.121416
-0.149741
-0.170853
-0.180746
-0.179007
-0.165465
-0.142946
-0.115386
-0.0888309
-0.067729
-0.0559101
-0.0560082
-0.0691182
-0.0946218
-0.130282
-0.172539
-0.216992
-0.25894
-0.293964
-0.318453
-0.330013
-0.327715
-0.312124
-0.285149
-0.249703
-0.209164
-0.167366
-0.127635
-0.0922657
-0.062949
-0.0398021
-0.134735
-0.166844
-0.190822
-0.202451
-0.201028
-0.186227
-0.160833
-0.128869
-0.0968445
-0.0696145
-0.0514977
-0.045668
-0.0537714
-0.0757036
-0.109658
-0.152379
-0.199609
-0.246614
-0.288745
-0.321976
-0.343334
-0.351185
-0.345328
-0.326906
-0.298147
-0.261534
-0.220608
-0.178649
-0.138366
-0.101911
-0.0702734
-0.144463
-0.179945
-0.20701
-0.221315
-0.221854
-0.208063
-0.182476
-0.148893
-0.113894
-0.0824054
-0.0589419
-0.0470067
-0.048687
-0.0644029
-0.092908
-0.131486
-0.176338
-0.223053
-0.267128
-0.304467
-0.33181
-0.347032
-0.349286
-0.338979
-0.317593
-0.286675
-0.249264
-0.208352
-0.166799
-0.126978
-0.0905422
-0.140596
-0.175968
-0.203593
-0.219367
-0.222091
-0.211147
-0.188481
-0.157353
-0.123795
-0.0922958
-0.0670728
-0.0515309
-0.0478835
-0.0569037
-0.0778891
-0.108799
-0.146561
-0.18746
-0.227566
-0.263171
-0.291158
-0.309295
-0.316386
-0.312295
-0.297846
-0.273783
-0.24248
-0.206487
-0.168396
-0.130486
-0.0946741
-0.118714
-0.149279
-0.173738
-0.188584
-0.192707
-0.18526
-0.167922
-0.143053
-0.115473
-0.0887546
-0.0663258
-0.0510297
-0.0448235
-0.0485605
-0.0619486
-0.083631
-0.111406
-0.142505
-0.173919
-0.20272
-0.22636
-0.242895
-0.251134
-0.250682
-0.241888
-0.224971
-0.201639
-0.173628
-0.143126
-0.111988
-0.082009
-0.083131
-0.104824
-0.122724
-0.134115
-0.138248
-0.134285
-0.123302
-0.106964
-0.0883952
-0.0699644
-0.0539842
-0.0424112
-0.0366451
-0.0373739
-0.0445373
-0.0573709
-0.0745369
-0.0942959
-0.114712
-0.133859
-0.150014
-0.161809
-0.168338
-0.169198
-0.164475
-0.154177
-0.139233
-0.120697
-0.10014
-0.0787923
-0.0580698
0.0043691
0.00802324
0.0132498
0.0203843
0.029396
0.0401511
0.0522502
0.0650992
0.0779329
0.0898894
0.10005
0.107517
0.111481
0.111303
0.10657
0.0971504
0.0832197
0.0652717
0.0441003
0.0207679
-0.00345727
-0.0271838
-0.0490082
-0.06762
-0.0819271
-0.0905534
-0.0930915
-0.0896327
-0.0811637
-0.0685643
-0.0537776
0.0133447
0.0201549
0.0289093
0.0396038
0.0521739
0.066397
0.0817094
0.097437
0.11279
0.126789
0.138395
0.146581
0.150416
0.149151
0.142295
0.129681
0.111507
0.0883574
0.0611866
0.0312925
0.000240709
-0.0302342
-0.0583647
-0.0824858
-0.101191
-0.112628
-0.116397
-0.112573
-0.102276
-0.0867181
-0.0680658
0.0304066
0.0419656
0.0549891
0.0689268
0.0835009
0.0983167
0.112853
0.126589
0.139215
0.150072
0.158455
0.163645
0.164958
0.161812
0.153789
0.140705
0.122667
0.100106
0.073793
0.0448296
0.0145997
-0.0153139
-0.0432493
-0.0675984
-0.0869586
-0.0994889
-0.104616
-0.10251
-0.0940552
-0.0803715
-0.0634611
0.0543834
0.0717427
0.0890989
0.105109
0.119169
0.13072
0.139428
0.145278
0.148991
0.150733
0.150657
0.148834
0.145241
0.139755
0.132188
0.122335
0.110056
0.0953317
0.0783283
0.0594402
0.0393035
0.0187738
-0.00113699
-0.0193455
-0.0348165
-0.0462143
-0.0529186
-0.0547313
-0.0521603
-0.0457599
-0.0368605
0.0808813
0.104065
0.124917
0.141248
0.152096
0.156753
0.155272
0.148418
0.138343
0.126428
0.114066
0.10248
0.0925906
0.0849299
0.079618
0.0763968
0.0747212
0.0738673
0.0730553
0.0715707
0.068869
0.0646473
0.058868
0.0517506
0.0437096
0.0352615
0.0270795
0.0197647
0.0135397
0.00869921
0.0049944
0.103799
0.131384
0.154027
0.168791
0.17442
0.170118
0.156448
0.135082
0.109681
0.0829498
0.0576163
0.0361159
0.0203468
0.011489
0.00992866
0.015275
0.0264765
0.0419793
0.0599271
0.0783671
0.0954556
0.109632
0.119738
0.125082
0.125443
0.120506
0.111024
0.098069
0.0826634
0.0660224
0.0490181
0.117542
0.146811
0.168877
0.180252
0.179532
0.165926
0.140545
0.105927
0.0669976
0.0276082
-0.00838444
-0.0375499
-0.0572233
-0.0657618
-0.0626581
-0.0485265
-0.0249567
0.00569886
0.0405991
0.0767008
0.111054
0.141062
0.164675
0.180513
0.187907
0.185982
0.175614
0.158313
0.13579
0.110009
0.0827935
0.119242
0.14716
0.166419
0.173314
0.166481
0.145233
0.111164
0.0674573
0.0197974
-0.027239
-0.0691225
-0.101874
-0.122461
-0.129091
-0.12134
-0.100119
-0.0674989
-0.0264429
0.0195236
0.0666628
0.111378
0.150523
0.181635
0.203075
0.214072
0.213657
0.202888
0.18359
0.157885
0.128119
0.0965843
0.109802
0.133939
0.149014
0.151444
0.140076
0.114394
0.0763104
0.0293259
-0.0207421
-0.0691338
-0.111213
-0.142988
-0.161514
-0.165189
-0.153852
-0.128734
-0.0922386
-0.0476459
0.0012604
0.0505709
0.0966233
0.136317
0.167337
0.188271
0.198623
0.197828
0.187157
0.168578
0.144254
0.116479
0.0874171
0.0930926
0.112345
0.123169
0.122387
0.109146
0.0831345
0.0463469
0.00221185
-0.0439064
-0.0876034
-0.124678
-0.151619
-0.16597
-0.166579
-0.15366
-0.128707
-0.0942463
-0.053524
-0.0101271
0.0323922
0.0708667
0.102792
0.126496
0.141207
0.146995
0.144085
0.133953
0.118512
0.0996059
0.0790744
0.0583896
0.0741523
0.0888833
0.0966267
0.0947999
0.0828474
0.0606432
0.0300043
-0.00608276
-0.043147
-0.0775669
-0.105987
-0.125727
-0.135073
-0.133458
-0.121476
-0.100753
-0.0736988
-0.0431903
-0.0122221
0.0164361
0.0405314
0.0585375
0.0697476
0.0742606
0.072855
0.0667116
0.0574542
0.0467663
0.0358864
0.0259283
0.0172763
0.0568386
0.0683391
0.0747723
0.0742383
0.0664074
0.0512967
0.0303119
0.00571004
-0.0191815
-0.0417849
-0.0598181
-0.0715999
-0.0762471
-0.0737766
-0.0650685
-0.0517161
-0.0357818
-0.0195121
-0.00503798
0.00590493
0.0121908
0.013427
0.00995985
0.00278485
-0.00665055
-0.0162803
-0.0244351
-0.0297949
-0.031872
-0.0303843
-0.0261767
0.0421231
0.0516204
0.0581238
0.0604516
0.0584116
0.0521213
0.0424243
0.030681
0.0189935
0.00880408
0.00126599
-0.00294317
-0.00372329
-0.00157487
0.0024765
0.00703525
0.0105545
0.0115708
0.00893163
0.00199713
-0.00923387
-0.0240866
-0.0412845
-0.0591
-0.0756002
-0.0881006
-0.0950159
-0.0954605
-0.0896918
-0.0781997
-0.0629326
0.0278367
0.0354983
0.042151
0.0473609
0.0510251
0.0533498
0.0545806
0.0551501
0.0559608
0.0573612
0.0594476
0.061996
0.0644489
0.0659612
0.0654991
0.0619821
0.0544596
0.0422786
0.0252292
0.00365917
-0.0214861
-0.0487018
-0.0760575
-0.101383
-0.122532
-0.136582
-0.142166
-0.138839
-0.127461
-0.109107
-0.0864757
0.0100366
0.0144704
0.0196564
0.025959
0.0333912
0.0422796
0.052353
0.0632091
0.0746206
0.0859697
0.0964381
0.105051
0.11074
0.112444
0.109218
0.100345
0.0854579
0.0646314
0.0384423
0.007997
-0.0251044
-0.0588646
-0.091055
-0.119409
-0.141864
-0.155674
-0.159806
-0.154211
-0.140114
-0.118913
-0.0935571
-0.0145906
-0.0160367
-0.0152472
-0.0109986
-0.00306936
0.00905031
0.0247385
0.0429366
0.0623685
0.081619
0.0991276
0.11333
0.122788
0.126327
0.123137
0.112857
0.095621
0.0720781
0.0433662
0.0110609
-0.0229233
-0.0564665
-0.0874137
-0.113746
-0.133771
-0.145301
-0.147731
-0.141338
-0.127427
-0.10744
-0.0840337
-0.0464421
-0.0566349
-0.0634036
-0.0646351
-0.0597912
-0.048121
-0.0304069
-0.00815141
0.0164096
0.041248
0.064243
0.083407
0.097065
0.104017
0.103625
0.0958476
0.081222
0.0607999
0.0360463
0.00871642
-0.0192899
-0.0460786
-0.0699105
-0.0893252
-0.10325
-0.110382
-0.110624
-0.104499
-0.0931407
-0.0777773
-0.0602794
-0.0820061
-0.102663
-0.119012
-0.128101
-0.129021
-0.12077
-0.104147
-0.0809114
-0.0541422
-0.0262986
0.00012427
0.0228903
0.040237
0.0510463
0.0549082
0.0521014
0.0434988
0.0304279
0.0144959
-0.00259548
-0.0192293
-0.0340236
-0.045937
-0.0543249
-0.0589428
-0.0596338
-0.0568791
-0.0514068
-0.0439943
-0.0354693
-0.0265591
-0.114807
-0.145443
-0.171189
-0.18842
-0.195906
-0.192463
-0.17886
-0.157012
-0.130678
-0.10259
-0.0754347
-0.051514
-0.0325038
-0.0192926
-0.0119533
-0.00982232
-0.0116771
-0.015953
-0.0209884
-0.0252674
-0.0276224
-0.0273716
-0.0243664
-0.0189643
-0.0119112
-0.00437699
0.0025035
0.00778616
0.0111164
0.0121552
0.0114819
-0.138016
-0.175747
-0.208269
-0.231539
-0.244174
-0.244952
-0.23469
-0.215454
-0.191508
-0.16574
-0.140881
-0.119126
-0.101887
-0.0896474
-0.0819863
-0.0777218
-0.0751785
-0.0724858
-0.0678954
-0.0600787
-0.0483506
-0.032788
-0.0142125
0.00592762
0.0258021
0.0428352
0.055164
0.0615594
0.0620213
0.0566694
0.047328
-0.147623
-0.188023
-0.22305
-0.248517
-0.263121
-0.265789
-0.257554
-0.240737
-0.219958
-0.198223
-0.178234
-0.16197
-0.150446
-0.143594
-0.140335
-0.138808
-0.136721
-0.131742
-0.121886
-0.105882
-0.0834091
-0.055209
-0.0230032
0.0107111
0.0430274
0.0700231
0.0890545
0.0984956
0.0985094
0.0895228
0.074323
-0.144593
-0.183315
-0.216465
-0.239921
-0.252667
-0.253948
-0.245208
-0.229189
-0.210815
-0.193276
-0.179279
-0.170599
-0.167834
-0.170305
-0.17619
-0.182822
-0.187134
-0.186137
-0.177394
-0.159443
-0.132079
-0.0964552
-0.0549596
-0.0109407
0.0317617
0.068107
0.0946726
0.109316
0.112089
0.103474
0.0867627
-0.134919
-0.169397
-0.197848
-0.216282
-0.22406
-0.220825
-0.208582
-0.190662
-0.172372
-0.15725
-0.148172
-0.146868
-0.153648
-0.167323
-0.185375
-0.204319
-0.220228
-0.229301
-0.228418
-0.215636
-0.190518
-0.154251
-0.109512
-0.0601473
-0.0106411
0.0332512
0.0674144
0.0891083
0.0979774
0.0942576
0.0811873
-0.127143
-0.157559
-0.181084
-0.193754
-0.195237
-0.185536
-0.167243
-0.14438
-0.122829
-0.106687
-0.0992567
-0.102496
-0.116712
-0.140464
-0.170749
-0.203407
-0.233708
-0.256988
-0.269287
-0.267917
-0.251847
-0.221871
-0.180489
-0.131588
-0.0798813
-0.0313065
0.00951647
0.0392437
0.0568726
0.062105
0.0575767
-0.128399
-0.157444
-0.178315
-0.186877
-0.182884
-0.166545
-0.140932
-0.110727
-0.0825977
-0.0613772
-0.0510481
-0.0541104
-0.0712206
-0.101051
-0.14046
-0.184907
-0.229067
-0.267524
-0.295459
-0.309292
-0.307127
-0.288981
-0.256729
-0.213813
-0.164718
-0.114985
-0.0694653
-0.0320042
-0.00437587
0.0123912
0.0198994
-0.141079
-0.172551
-0.194367
-0.201998
-0.195013
-0.173616
-0.141123
-0.102707
-0.0659191
-0.0363806
-0.0188924
-0.0167285
-0.0312031
-0.0614672
-0.104633
-0.156162
-0.210479
-0.261673
-0.30423
-0.333704
-0.347231
-0.343829
-0.324414
-0.291591
-0.249199
-0.201882
-0.154404
-0.110911
-0.0739184
-0.0452337
-0.0245147
-0.159477
-0.195927
-0.221462
-0.231165
-0.224212
-0.200614
-0.163635
-0.118609
-0.0737716
-0.0353364
-0.00880955
0.00176846
-0.00568697
-0.0310346
-0.0719672
-0.124344
-0.18276
-0.241225
-0.29388
-0.335683
-0.362953
-0.373731
-0.367878
-0.346957
-0.313879
-0.272082
-0.225917
-0.179545
-0.136011
-0.0977673
-0.0656678
-0.174212
-0.215474
-0.245365
-0.258695
-0.25421
-0.231615
-0.19385
-0.146007
-0.0965082
-0.0517321
-0.0175177
0.00159518
0.00288967
-0.014217
-0.0481662
-0.0955151
-0.151434
-0.210309
-0.266416
-0.314555
-0.350599
-0.371883
-0.377365
-0.367598
-0.344487
-0.310203
-0.268432
-0.223026
-0.17725
-0.1339
-0.094763
-0.172113
-0.214067
-0.245437
-0.261264
-0.260012
-0.241274
-0.207257
-0.162383
-0.114447
-0.0693259
-0.0325357
-0.00854849
-0.000293094
-0.00884023
-0.0333489
-0.0712431
-0.118609
-0.170691
-0.222453
-0.269132
-0.306728
-0.332368
-0.344507
-0.342952
-0.328727
-0.302915
-0.26835
-0.228355
-0.185912
-0.143771
-0.104133
-0.14696
-0.183787
-0.212153
-0.227754
-0.229173
-0.215648
-0.189094
-0.152756
-0.112924
-0.0743225
-0.0414822
-0.0181783
-0.00702955
-0.00922036
-0.0244368
-0.0509715
-0.0860078
-0.12598
-0.166999
-0.205269
-0.237475
-0.261084
-0.274523
-0.277242
-0.269649
-0.252099
-0.226612
-0.1955
-0.161291
-0.126236
-0.09248
-0.104102
-0.130621
-0.151727
-0.164091
-0.166735
-0.158788
-0.141497
-0.117161
-0.0899081
-0.0629145
-0.0392744
-0.0216185
-0.0118421
-0.0109051
-0.0187763