# vtk DataFile Version 2.0
Func
ASCII
DATASET RECTILINEAR_GRID
DIMENSIONS 31 31 31
X_COORDINATES 31 double
-9.67742
-9.03226
-8.3871
-7.74194
-7.09677
-6.45161
-5.80645
-5.16129
-4.51613
-3.87097
-3.22581
-2.58065
-1.93548
-1.29032
-0.645161
0
0.645161
1.29032
1.93548
2.58065
3.22581
3.87097
4.51613
5.16129
5.80645
6.45161
7.09677
7.74194
8.3871
9.03226
9.67742
Y_COORDINATES 31 double
-9.67742
-9.03226
-8.3871
-7.74194
-7.09677
-6.45161
-5.80645
-5.16129
-4.51613
-3.87097
-3.22581
-2.58065
-1.93548
-1.29032
-0.645161
0
0.645161
1.29032
1.93548
2.58065
3.22581
3.87097
4.51613
5.16129
5.80645
6.45161
7.09677
7.74194
8.3871
9.03226
9.67742
Z_COORDINATES 31 double
-9.67742
-9.03226
-8.3871
-7.74194
-7.09677
-6.45161
-5.80645
-5.16129
-4.51613
-3.87097
-3.22581
-2.58065
-1.93548
-1.29032
-0.645161
0
0.645161
1.29032
1.93548
2.58065
3.22581
3.87097
4.51613
5.16129
5.80645
6.45161
7.09677
7.74194
8.3871
9.03226
9.67742
POINT_DATA 29791
SCALARS data double 1
LOOKUP_TABLE default
0.0453445
0.0596652
0.0732748
0.0846805
0.0929611
0.0969209
0.0960127
0.0899373
0.0791401
0.06397
0.0451082
0.0235306
0.000455556
-0.0227461
-0.0446515
-0.0639008
-0.0793079
-0.0899693
-0.0953491
-0.095336
-0.0902571
-0.0808488
-0.0681768
-0.0535295
-0.0382766
-0.0239213
-0.0115803
-0.00207282
0.00435519
0.00768053
0.00838111
0.061538
0.0812833
0.100037
0.116012
0.127814
0.133835
0.133214
0.125333
0.110726
0.0897814
0.0633798
0.0328546
-7.61689e-05
-0.033433
-0.0651229
-0.0931139
-0.115607
-0.131207
-0.139057
-0.138937
-0.131291
-0.117188
-0.0982075
-0.0762786
-0.0534665
-0.032089
-0.0138073
0.000172403
0.00942904
0.013941
0.0144539
0.0658589
0.0874609
0.108221
0.126307
0.140115
0.147898
0.148388
0.140755
0.125355
0.102451
0.0729032
0.0381536
0.000156775
-0.0387544
-0.0760503
-0.109222
-0.136004
-0.1546
-0.163865
-0.163443
-0.153815
-0.136259
-0.112713
-0.0855747
-0.0574313
-0.0312463
-0.00912042
0.00748413
0.0180336
0.0225439
0.021994
0.0545227
0.0733609
0.0919776
0.108877
0.122576
0.131353
0.133852
0.128989
0.116669
0.0968378
0.0700689
0.0375841
0.00121158
-0.0367359
-0.0736474
-0.10685
-0.133865
-0.152664
-0.161895
-0.161047
-0.150531
-0.131644
-0.106432
-0.0774746
-0.047584
-0.0200617
0.00280382
0.0193945
0.0291964
0.0322792
0.0297926
0.0300362
0.0419726
0.054653
0.0672927
0.0787757
0.0877502
0.0928388
0.0927646
0.0867945
0.0744177
0.0556962
0.0313445
0.00272904
-0.0282159
-0.0591535
-0.087572
-0.111048
-0.127517
-0.135518
-0.134385
-0.12435
-0.106533
-0.0828214
-0.0556588
-0.027757
-0.00240404
0.018176
0.0324085
0.0398479
0.0406221
0.0358873
-0.000930107
0.00196991
0.00670764
0.0133708
0.021361
0.0298682
0.0376078
0.0431692
0.0451371
0.0425008
0.0347146
0.0218344
0.00456746
-0.0157594
-0.0373259
-0.0580171
-0.0756725
-0.0883494
-0.0945696
-0.0935276
-0.0852104
-0.0704196
-0.0506769
-0.0280505
-0.00489334
0.0158205
0.0321274
0.042629
0.0469792
0.0453408
0.038762
-0.0315763
-0.0377472
-0.0411797
-0.0408426
-0.0367922
-0.0292291
-0.0192697
-0.00837938
0.00144338
0.00875073
0.0124185
0.0118325
0.00698599
-0.0014965
-0.0124374
-0.0242616
-0.035214
-0.043597
-0.0480038
-0.0475258
-0.0418868
-0.0314925
-0.0173748
-0.0010632
0.0156249
0.0302582
0.0412696
0.0475286
0.04879
0.0452156
0.0376567
-0.0558351
-0.0693232
-0.0795229
-0.0845749
-0.0840761
-0.0776572
-0.0662283
-0.0512243
-0.0350118
-0.0193297
-0.00574208
0.00458148
0.0109992
0.0134689
0.0125183
0.00913772
0.00460697
0.00029692
-0.00253567
-0.00294115
-0.000414878
0.00503206
0.0128887
0.0222226
0.0318287
0.0399389
0.0454497
0.0475475
0.0460774
0.0411757
0.0334432
-0.0710903
-0.0893358
-0.104156
-0.113056
-0.115302
-0.110054
-0.0979933
-0.0804428
-0.0598777
-0.0381471
-0.0170677
0.00181083
0.0173579
0.0289697
0.0365819
0.0406117
0.0418358
0.0412414
0.0398602
0.0386034
0.0381311
0.0387694
0.0404911
0.0429457
0.0455448
0.0472147
0.0473416
0.0454539
0.0414877
0.0355552
0.0280018
-0.0779282
-0.0985204
-0.115897
-0.12713
-0.131283
-0.127155
-0.115191
-0.096531
-0.0735315
-0.0479892
-0.0217946
0.00329751
0.0258245
0.0447455
0.0594887
0.0699395
0.0763723
0.0793553
0.0796324
0.0779937
0.0751634
0.0717136
0.0680189
0.0642429
0.0603636
0.0559568
0.0508921
0.0450514
0.0384817
0.0313028
0.0236471
-0.0795291
-0.100975
-0.119599
-0.132207
-0.137735
-0.134709
-0.123337
-0.104529
-0.0803915
-0.0525631
-0.0228875
0.00680058
0.0348256
0.0598127
0.0807615
0.0970761
0.108548
0.115315
0.117791
0.116581
0.112388
0.105933
0.0978946
0.0888558
0.0792809
0.0692979
0.0592317
0.049314
0.0397394
0.0306858
0.0221526
-0.0799875
-0.101979
-0.121541
-0.135304
-0.142101
-0.140233
-0.129681
-0.111116
-0.0863749
-0.0569144
-0.0244895
0.00903971
0.0418481
0.0722936
0.0990119
0.120982
0.137553
0.148453
0.153764
0.153872
0.149403
0.141149
0.129997
0.116848
0.102558
0.0876802
0.0729422
0.0589031
0.0459385
0.0343324
0.0240469
-0.0824366
-0.10555
-0.126474
-0.141701
-0.149939
-0.149298
-0.139558
-0.121177
-0.0958116
-0.0647808
-0.0297774
0.00730805
0.0445213
0.0799968
0.11207
0.13937
0.160879
0.17598
0.184467
0.186524
0.182682
0.173752
0.160747
0.14479
0.127013
0.108258
0.089571
0.0717839
0.0554619
0.041018
0.0284665
-0.0877389
-0.112745
-0.135579
-0.152617
-0.162422
-0.16295
-0.153833
-0.135385
-0.109224
-0.0766152
-0.0392535
0.000911581
0.0418075
0.0813966
0.1178
0.149408
0.17496
0.193609
0.204959
0.209051
0.206342
0.197636
0.184002
0.166678
0.146952
0.125807
0.104483
0.0839921
0.0650567
0.0482012
0.0335573
-0.0941868
-0.121276
-0.146018
-0.16472
-0.175816
-0.177187
-0.168398
-0.149716
-0.122853
-0.0891134
-0.0502478
-0.00827597
0.0346497
0.0764071
0.115034
0.148839
0.17649
0.197076
0.210143
0.215691
0.214143
0.206283
0.19317
0.176042
0.156204
0.134628
0.112586
0.0911414
0.0710961
0.05303
0.0372186
-0.0983177
-0.126593
-0.152263
-0.171657
-0.183174
-0.184738
-0.17596
-0.157161
-0.130226
-0.096556
-0.0579698
-0.0165209
0.0256482
0.066469
0.104071
0.136885
0.163707
0.183753
0.196671
0.202524
0.201753
0.195104
0.183557
0.168227
0.150279
0.130527
0.110093
0.0899327
0.0708233
0.0533165
0.0378176
-0.0964597
-0.123916
-0.14856
-0.166904
-0.177448
-0.178327
-0.169312
-0.150875
-0.125062
-0.0933748
-0.0576582
-0.0199065
0.0178864
0.0538827
0.0865069
0.114523
0.137067
0.153662
0.164205
0.168919
0.168295
0.163024
0.153925
0.141872
0.127738
0.112038
0.0955708
0.0790332
0.0630556
0.0480756
0.0345764
-0.0863589
-0.110364
-0.131518
-0.146707
-0.154702
-0.154015
-0.144679
-0.127377
-0.104228
-0.0767848
-0.0468283
-0.0161639
0.0135236
0.0408076
0.0645974
0.0841759
0.0991878
0.109609
0.115687
0.117867
0.116709
0.112819
0.106785
0.0991407
0.0903426
0.0805099
0.0699788
0.0590641
0.0481449
0.0374726
0.0275253
-0.0682243
-0.0863071
-0.101724
-0.111916
-0.116069
-0.113205
-0.103675
-0.0883915
-0.0694071
-0.0482473
-0.0265184
-0.00570885
0.0129434
0.0285605
0.0406655
0.0491738
0.0543326
0.0566401
0.056743
0.0553278
0.0530228
0.0503229
0.0475504
0.0448429
0.042183
0.0392563
0.0358729
0.0318948
0.0273768
0.0223361
0.0171418
-0.0447866
-0.0554135
-0.0637646
-0.0679547
-0.0676596
-0.0624662
-0.0530459
-0.0405106
-0.0267114
-0.0130601
-0.000899112
0.00868293
0.0149648
0.0176681
0.0169587
0.0133939
0.00781785
0.00123571
-0.00532599
-0.0109543
-0.0149615
-0.0169582
-0.016876
-0.0149477
-0.0116396
-0.00764424
-0.00365466
-0.000259297
0.00223402
0.00358657
0.00394046
-0.0203902
-0.0234302
-0.0247
-0.023009
-0.0185074
-0.0113059
-0.00234272
0.00713995
0.0155825
0.0217458
0.0245868
0.0234224
0.0180195
0.00863792
-0.00400083
-0.0188019
-0.0344312
-0.0494727
-0.0625927
-0.0726894
-0.0790115
-0.0812289
-0.0794429
-0.0741448
-0.066125
-0.056299
-0.04575
-0.0354438
-0.0260549
-0.018084
-0.011738
0.000478528
0.00376763
0.00833337
0.0147564
0.0225187
0.0311111
0.0394268
0.0461779
0.0501167
0.0501883
0.0456151
0.0360356
0.021575
0.00286352
-0.0190146
-0.0426258
-0.0663326
-0.088462
-0.107477
-0.122128
-0.131574
-0.135446
-0.133865
-0.127387
-0.116915
-0.103348
-0.0879736
-0.072005
-0.0564628
-0.0421084
-0.0296116
0.0146158
0.0220454
0.0303935
0.0398022
0.049552
0.0589139
0.0667281
0.0717407
0.072966
0.0694941
0.0607138
0.0464297
0.0269191
0.00294153
-0.0243137
-0.0533273
-0.0823844
-0.109732
-0.13374
-0.153043
-0.166654
-0.174038
-0.175133
-0.170318
-0.160349
-0.145824
-0.128011
-0.108209
-0.0877467
-0.0676435
-0.0491222
0.0209451
0.0300898
0.0400106
0.0506264
0.0611965
0.0709571
0.0788041
0.0835735
0.0844446
0.0805765
0.0713889
0.0566633
0.0365973
0.0118211
-0.0166368
-0.0474238
-0.0789654
-0.109593
-0.137679
-0.161759
-0.180638
-0.193473
-0.199822
-0.199646
-0.193297
-0.180804
-0.163201
-0.14171
-0.117918
-0.0930903
-0.0690482
0.0205265
0.0293781
0.03909
0.0495649
0.06019
0.0703168
0.0789749
0.0851178
0.0879808
0.086708
0.0806188
0.0693009
0.0526732
0.0310227
0.00500281
-0.024398
-0.0559133
-0.0880831
-0.119353
-0.148171
-0.173084
-0.192839
-0.206465
-0.213331
-0.213193
-0.205335
-0.190387
-0.16936
-0.144036
-0.115899
-0.0873453
0.0158205
0.0231764
0.0316426
0.0412617
0.0516352
0.0623181
0.0725133
0.0812936
0.0878667
0.0912989
0.0907215
0.0854231
0.0749268
0.0590553
0.0379702
0.0121891
-0.0174203
-0.0496756
-0.083141
-0.116194
-0.147121
-0.174227
-0.195965
-0.211045
-0.218554
-0.216986
-0.206485
-0.187768
-0.162731
-0.133022
-0.101518
0.00967786
0.0151571
0.0220509
0.0305988
0.040633
0.0519287
0.0638673
0.0756326
0.0863767
0.0950775
0.100671
0.102145
0.0986294
0.0894908
0.0744074
0.0534316
0.0270298
-0.00390921
-0.0380992
-0.073899
-0.109402
-0.142556
-0.17133
-0.193865
-0.208662
-0.213559
-0.208235
-0.193097
-0.170046
-0.140802
-0.108502
0.00437166
0.00822497
0.013695
0.0212112
0.0307899
0.0423877
0.0555443
0.0695499
0.0835309
0.096425
0.107047
0.114183
0.116688
0.113596
0.104225
0.0882638
0.0658501
0.0376068
0.00464539
-0.0314572
-0.0687398
-0.104981
-0.137881
-0.165245
-0.1852
-0.195216
-0.194626
-0.18356
-0.163816
-0.137055
-0.106456
0.00107256
0.0037941
0.00808999
0.014511
0.0231777
0.0341534
0.0471126
0.0614627
0.0763875
0.0908907
0.103817
0.113935
0.120038
0.121048
0.116129
0.104783
0.0869394
0.0630051
0.0338851
0.000970825
-0.0339284
-0.0686997
-0.101102
-0.128949
-0.150326
-0.162727
-0.165326
-0.158124
-0.142629
-0.120316
-0.0940821
-0.000209336
0.00175035
0.00499279
0.0100712
0.0171255
0.02626
0.0372444
0.0496338
0.0627663
0.0758315
0.0878667
0.0978285
0.104671
0.107436
0.105351
0.0979139
0.0849708
0.0667687
0.043976
0.0176801
-0.0106663
-0.0393341
-0.0664649
-0.090221
-0.108973
-0.12064
-0.124495
-0.120318
-0.109359
-0.0927411
-0.0728399
-0.000138191
0.00127905
0.00351254
0.00703699
0.0119383
0.0182963
0.0259751
0.0346783
0.0439653
0.0532899
0.0619956
0.069364
0.074668
0.0772345
0.0765094
0.0721203
0.06393
0.052075
0.0369825
0.0193693
0.000208303
-0.01933
-0.0379792
-0.0544775
-0.0677005
-0.0762673
-0.0795868
-0.077452
-0.0707553
-0.0601658
-0.0474417
0.0654957
0.08615
0.105636
0.1219
0.133516
0.138819
0.13693
0.127287
0.110541
0.087174
0.0581702
0.024965
-0.0106286
-0.0465496
-0.0806406
-0.110821
-0.135256
-0.152524
-0.161748
-0.162687
-0.155761
-0.14201
-0.122986
-0.100587
-0.0768621
-0.0540389
-0.0337865
-0.0174001
-0.00541847
0.00208608
0.00550399
0.0877116
0.115802
0.142361
0.164845
0.181206
0.189287
0.187711
0.175368
0.153044
0.121256
0.0812481
0.0349485
-0.0151278
-0.0660519
-0.1147
-0.158015
-0.193259
-0.218276
-0.231692
-0.233071
-0.222961
-0.20284
-0.174961
-0.142118
-0.107342
-0.0740148
-0.0445603
-0.0208479
-0.00376344
0.00656558
0.0108203
0.0929472
0.123381
0.152579
0.177906
0.197031
0.20763
0.207712
0.195842
0.172518
0.138046
0.0936107
0.0412661
-0.0161574
-0.0752402
-0.132239
-0.183407
-0.225325
-0.255235
-0.271319
-0.272905
-0.260552
-0.235994
-0.20196
-0.16188
-0.119507
-0.0791287
-0.043764
-0.0156696
0.00403032
0.0152264
0.018839
0.0760507
0.102333
0.128386
0.152042
0.171145
0.183352
0.186564
0.179003
0.160459
0.130751
0.0906189
0.0417691
-0.013177
-0.0708504
-0.127404
-0.178859
-0.221481
-0.252163
-0.268759
-0.270348
-0.257344
-0.23147
-0.195568
-0.153292
-0.108694
-0.066523
-0.0300353
-0.00170894
0.0172982
0.0269402
0.0283066
0.0403004
0.0565899
0.0741288
0.0917818
0.107937
0.120703
0.127985
0.127773
0.118874
0.100418
0.0723796
0.0357005
-0.00769368
-0.0550077
-0.102812
-0.147374
-0.185043
-0.212656
-0.227895
-0.22959
-0.217866
-0.194156
-0.161028
-0.121908
-0.0806648
-0.0420011
-0.00904588
0.015797
0.0314334
0.0378892
0.0362321
-0.00458837
-0.00128191
0.0049081
0.0141218
0.0255124
0.0378686
0.0492725
0.0575927
0.0605889
0.0566533
0.0448602
0.0251789
-0.00144101
-0.0331061
-0.0671555
-0.100446
-0.129719
-0.151989
-0.16491
-0.167096
-0.1583
-0.139465
-0.112605
-0.0805673
-0.0466743
-0.0151438
0.0112948
0.0305038
0.0415261
0.0444351
0.0401191
-0.0490614
-0.0588746
-0.0644381
-0.0642774
-0.0584268
-0.0473025
-0.0325359
-0.0162586
-0.00159893
0.00919874
0.014363
0.0128789
0.00464369
-0.00948933
-0.0278153
-0.0479975
-0.0673854
-0.083364
-0.093701
-0.0968602
-0.0922058
-0.0800897
-0.0617939
-0.0393565
-0.0152939
0.00700002
0.0253859
0.0381249
0.0444263
0.0443659
0.038538
-0.0844008
-0.104899
-0.120306
-0.128007
-0.127334
-0.117927
-0.101084
-0.0788211
-0.0548169
-0.0317283
-0.0119608
0.0026614
0.0111029
0.0132303
0.00977962
0.00221103
-0.00754374
-0.0173698
-0.0252732
-0.0296698
-0.0295946
-0.0248203
-0.0158564
-0.00385118
0.00959512
0.022095
0.0321887
0.038605
0.0407225
0.0385869
0.0324215
-0.106765
-0.134334
-0.156581
-0.170062
-0.173586
-0.166116
-0.148597
-0.122825
-0.0926273
-0.0608012
-0.0301033
-0.00290494
0.0190436
0.0347779
0.0441494
0.0477552
0.0467627
0.0426964
0.0371953
0.0317668
0.0275909
0.0253841
0.0253495
0.0272031
0.0302646
0.033202
0.0352689
0.0356969
0.0340421
0.0303211
0.0243803
-0.116893
-0.148076
-0.174221
-0.191369
-0.197986
-0.192483
-0.175456
-0.148396
-0.114926
-0.0777424
-0.039687
-0.00341797
0.0288314
0.0554502
0.0755305
0.0888666
0.0958615
0.097396
0.0946583
0.0889559
0.0815464
0.0734997
0.0656083
0.0583503
0.0518911
0.0458857
0.0402944
0.0348692
0.0293666
0.0238176
0.0177553
-0.119231
-0.151808
-0.179913
-0.199305
-0.208228
-0.204656
-0.188842
-0.161919
-0.127106
-0.0868428
-0.04388
-0.000977603
0.0393252
0.0749253
0.104276
0.126445
0.141106
0.148481
0.149252
0.144432
0.135232
0.122936
0.108778
0.0938603
0.0790718
0.0649054
0.0519913
0.0405992
0.0307242
0.0224814
0.0152111
-0.119568
-0.15295
-0.182429
-0.203601
-0.214533
-0.212846
-0.198469
-0.172171
-0.136744
-0.0943406
-0.0475606
0.000813012
0.0480311
0.0916011
0.129439
0.159981
0.182237
0.195812
0.200885
0.198134
0.188648
0.173807
0.15515
0.134251
0.112576
0.0912586
0.0715254
0.054132
0.0393435
0.0274252
0.0176703
-0.122369
-0.157194
-0.188465
-0.211639
-0.224597
-0.224686
-0.211546
-0.185628
-0.149442
-0.104921
-0.0545635
-0.00118112
0.0522993
0.103068
0.148608
0.186844
0.21625
0.235925
0.245619
0.24571
0.237143
0.22132
0.199964
0.174964
0.148196
0.121215
0.095714
0.0728563
0.0531756
0.0371182
0.0240696
-0.128919
-0.166099
-0.199756
-0.225193
-0.240102
-0.241644
-0.229249
-0.203155
-0.165809
-0.119067
-0.0654194
-0.00775276
0.0508486
0.107341
0.158912
0.203156
0.238206
0.26284
0.276536
0.279471
0.272478
0.256941
0.234658
0.207673
0.178076
0.147605
0.118235
0.0913924
0.067828
0.0481461
0.031929
-0.136894
-0.176562
-0.21245
-0.239745
-0.255997
-0.258311
-0.246037
-0.219342
-0.180828
-0.132412
-0.076667
-0.0165722
0.0446905
0.103979
0.15839
0.205433
0.243166
0.270299
0.28625
0.291145
0.285766
0.271457
0.249981
0.223355
0.193663
0.162583
0.132119
0.103765
0.0783814
0.0566546
0.0384192
-0.14153
-0.182345
-0.218992
-0.246658
-0.262882
-0.264903
-0.252151
-0.224894
-0.186007
-0.137565
-0.0822456
-0.0230713
0.0368112
0.0943703
0.146875
0.192057
0.228207
0.254256
0.269798
0.275062
0.27085
0.258436
0.239426
0.215619
0.188847
0.160484
0.132278
0.105561
0.0811619
0.0597359
0.0413748
-0.137813
-0.17696
-0.211612
-0.237176
-0.251383
-0.251824
-0.238185
-0.210993
-0.173385
-0.127604
-0.0763784
-0.0226397
0.0307023
0.0809855
0.125953
0.163872
0.193574
0.214482
0.226576
0.230325
0.226596
0.216543
0.201492
0.182825
0.161885
0.139522
0.116957
0.0951315
0.0746915
0.0561481
0.0398081
-0.122778
-0.156656
-0.185949
-0.20655
-0.216619
-0.214299
-0.199692
-0.173686
-0.139549
-0.0996258
-0.0565649
-0.0130222
0.028559
0.0661462
0.0982301
0.123878
0.142709
0.154835
0.16077
0.161302
0.157373
0.149963
0.140001
0.128294
0.115505
0.101795
0.0876533
0.0734536
0.0595303
0.0461564
0.0337762
-0.0969462
-0.122279
-0.143259
-0.156519
-0.160839
-0.155062
-0.139787
-0.116306
-0.0878062
-0.056618
-0.0251516
0.00439432
0.0302363
0.0511628
0.0665891
0.0765374
0.0815333
0.0824706
0.0804463
0.0765857
0.0718894
0.0671189
0.0627361
0.0588921
0.0554781
0.0519103
0.0478433
0.0429963
0.0373062
0.0307497
0.0237989
-0.0643523
-0.079253
-0.090338
-0.0951361
-0.0931399
-0.0839279
-0.0685944
-0.0487931
-0.0274273
-0.00668115
0.0114018
0.0251963
0.0336704
0.0364937
0.0340317
0.0272557
0.0175704
0.00660824
-0.0039949
-0.0128154
-0.0188164
-0.0214578
-0.0207246
-0.017087
-0.011381
-0.00484935
0.00136825
0.00635066
0.009603
0.010779
0.0102401
-0.0311853
-0.0357642
-0.0372469
-0.0340715
-0.026403
-0.0144723
0.000226831
0.0157878
0.0297301
0.0401066
0.0452944
0.0442448
0.0366253
0.0228816
0.00418253
-0.0177256
-0.0407376
-0.0626439
-0.0813927
-0.0953296
-0.103382
-0.105164
-0.100977
-0.0917404
-0.0788198
-0.063869
-0.0486489
-0.0346032
-0.0226491
-0.0134646
-0.00696333
-0.00365999
6.12047e-05
0.006154
0.0154112
0.0271611
0.0407067
0.0543176
0.0659798
0.0736685
0.0756991
0.0708219
0.0584403
0.0387224
0.0126311
-0.0181614
-0.0514445
-0.0847054
-0.1154
-0.141225
-0.160363
-0.171666
-0.174752
-0.170006
-0.158492
-0.141778
-0.121546
-0.0998947
-0.078597
-0.0589536
-0.0419781
-0.0280389
0.013999
0.0227939
0.033407
0.0461206
0.0600014
0.074129
0.0867268
0.0958162
0.099758
0.0970809
0.0867694
0.068451
0.0424893
0.0100022
-0.0272246
-0.0669008
-0.10645
-0.143263
-0.174956
-0.19959
-0.215856
-0.22317
-0.221692
-0.212249
-0.19621
-0.174823
-0.150195
-0.124189
-0.0984381
-0.0742969
-0.0527607
0.0206942
0.03115
0.0431603
0.0568057
0.0711489
0.0852867
0.0975692
0.106162
0.109671
0.106737
0.096387
0.078199
0.0523939
0.0198628
-0.0178896
-0.0588689
-0.10076
-0.141132
-0.177655
-0.208293
-0.231465
-0.246166
-0.252008
-0.249216
-0.238551
-0.220406
-0.196562
-0.168752
-0.138873
-0.108624
-0.0797526
0.0183647
0.0278068
0.0388537
0.0516621
0.0654991
0.079663
0.09275
0.103129
0.109498
0.110492
0.104995
0.0922947
0.0721809
0.0450089
0.0116907
-0.0263622
-0.0673377
-0.10916
-0.149651
-0.186673
-0.218292
-0.242905
-0.259345
-0.266945
-0.26557
-0.254453
-0.234803
-0.208036
-0.176242
-0.141443
-0.106179
0.01082
0.017821
0.0267124
0.0379168
0.0510205
0.0656211
0.0806136
0.0945821
0.1062
0.114009
0.11663
0.11291
0.102049
0.0836949
0.0580056
0.0256626
-0.0121473
-0.0537931
-0.0972976
-0.14044
-0.180903
-0.216424
-0.244966
-0.264862
-0.274954
-0.273236
-0.260211
-0.236866
-0.205404
-0.168104
-0.128224
0.00227135
0.00662371
0.0132334
0.0228284
0.0353247
0.0506216
0.0679059
0.085963
0.103407
0.118674
0.130112
0.136139
0.135373
0.126783
0.109797
0.0843898
0.0511342
0.0112108
-0.0336351
-0.0811552
-0.128734
-0.17356
-0.212848
-0.244054
-0.265111
-0.272967
-0.267437
-0.249066
-0.220054
-0.18281
-0.141071
-0.00414497
-0.00177845
0.00308066
0.0114126
0.0233865
0.0391339
0.0580851
0.0792093
0.101108
0.122177
0.140605
0.154519
0.162142
0.161952
0.152836
0.134229
0.106211
0.0695692
0.0257987
-0.0229293
-0.0738893
-0.123979
-0.169971
-0.208773
-0.237724
-0.253146
-0.254326
-0.241416
-0.216498
-0.18194
-0.141649
-0.00697681
-0.00567403
-0.00196905
0.00522299
0.0162012
0.0312102
0.0498756
0.0713515
0.0943505
0.117379
0.138683
0.156381
0.168611
0.173694
0.170297
0.157582
0.135332
0.104029
0.0648861
0.0198304
-0.0285957
-0.077402
-0.123395
-0.163444
-0.19478
-0.2137
-0.219213
-0.211305
-0.191707
-0.162536
-0.127413
-0.00651694
-0.00561377
-0.00274652
0.00308954
0.0121931
0.0248347
0.0407491
0.0593087
0.0794764
0.100036
0.119527
0.136351
0.148894
0.155663
0.15543
0.147365
0.131148
0.107051
0.075972
0.0394325
-0.000500808
-0.0413472
-0.0804202
-0.115049
-0.142842
-0.160676
-0.16765
-0.163418
-0.149465
-0.127442
-0.100329
-0.00413373
-0.00330301
-0.00119524
0.00299773
0.00946818
0.0184186
0.0296918
0.0428625
0.0572399
0.0719967
0.0861255
0.0985149
0.10803
0.113609
0.114363
0.109673
0.0992697
0.0832941
0.0623261
0.0373841
0.00987633
-0.0184871
-0.0458407
-0.0703169
-0.0902337
-0.103496
-0.109296
-0.107298
-0.0986361
-0.0843704
-0.0666663
0.0782792
0.102779
0.125756
0.144741
0.15796
0.163475
0.160038
0.146974
0.125038
0.0947959
0.0574339
0.0147106
-0.0311359
-0.0775419
-0.121805
-0.1613
-0.193686
-0.217118
-0.230414
-0.233172
-0.225805
-0.2095
-0.186091
-0.157861
-0.127311
-0.0970828
-0.0693277
-0.0456532
-0.0269928
-0.0136085
-0.00531824
0.103973
0.137019
0.168142
0.194262
0.212864
0.221468
0.21815
0.201576
0.17263
0.131891
0.0808335
0.0217889
-0.0421738
-0.107449
-0.170164
-0.226494
-0.272983
-0.306854
-0.326277
-0.330555
-0.320194
-0.296849
-0.263141
-0.222389
-0.178248
-0.134669
-0.0947777
-0.0608693
-0.0343974
-0.0157759
-0.0046014
0.109294
0.14483
0.178873
0.208263
0.23013
0.241794
0.240571
0.224723
0.194736
0.150895
0.0945614
0.0281791
-0.0448363
-0.120311
-0.193634
-0.260148
-0.315552
-0.356313
-0.380013
-0.385616
-0.373572
-0.345776
-0.305355
-0.256334
-0.203198
-0.150911
-0.103329
-0.06323
-0.0324298
-0.011382
0.000473356
0.0878853
0.118201
0.148359
0.175763
0.197783
0.211693
0.214723
0.204672
0.18112
0.143713
0.0932198
0.0316082
-0.0380112
-0.11157
-0.184367
-0.251478
-0.308222
-0.350626
-0.375843
-0.382478
-0.370747
-0.342454
-0.300793
-0.249989
-0.194823
-0.140746
-0.0918951
-0.0512639
-0.020796
-0.000913392
0.00905519
0.0439231
0.0621234
0.082048
0.102385
0.121197
0.136254
0.144873
0.144522
0.133542
0.110698
0.0757798
0.029771
-0.0251169
-0.0855641
-0.147417
-0.206081
-0.256993
-0.296105
-0.320343
-0.327973
-0.318809
-0.294237
-0.257052
-0.211128
-0.160965
-0.111889
-0.0678497
-0.0317146
-0.00538821
0.0107706
0.0173598
-0.0108426
-0.00828217
-0.00197048
0.00836936
0.0217594
0.0367298
0.0509234
0.0616114
0.0658333
0.0614311
0.0470662
0.0224973
-0.0112945
-0.0521306
-0.0968322
-0.141556
-0.182235
-0.215051
-0.236887
-0.245727
-0.240898
-0.223143
-0.194528
-0.158167
-0.117838
-0.0782202
-0.042737
-0.0139024
0.00653174
0.0182527
0.0216086
-0.0649866
-0.0782937
-0.0861736
-0.0867187
-0.079892
-0.0662549
-0.0476977
-0.0269804
-0.00814414
0.00587513
0.0126974
0.0108618
3.97491e-05
-0.0188929
-0.0439602
-0.0723387
-0.100736
-0.125809
-0.144596
-0.154897
-0.15555
-0.146553
-0.129039
-0.105091
-0.077455
-0.0497579
-0.0246531
-0.00415243
0.010204
0.0181029
0.0195182
-0.107902
-0.134202
-0.154084
-0.164271
-0.163851
-0.152481
-0.131538
-0.103645
-0.0734818
-0.0444636
-0.0197269
-0.00171495
0.00809885
0.0093664
0.0028513
-0.00973012
-0.026002
-0.043271
-0.0588947
-0.0706371
-0.0769405
-0.0770894
-0.0712523
-0.0603964
-0.0461127
-0.0307544
-0.0160962
-0.00357794
0.00549087
0.0107589
0.0117358
-0.134888
-0.169864
-0.198217
-0.2157
-0.220754
-0.212226
-0.190981
-0.159349
-0.122132
-0.0828685
-0.0450837
-0.0118613
0.0144635
0.0325213
0.0419731
0.0434449
0.0383345
0.0285669
0.0163057
0.00365715
-0.00758232
-0.0161096
-0.0212174
-0.0227999
-0.0212969
-0.0177315
-0.0129623
-0.00782118
-0.00337079
3.82926e-06
0.00133873
-0.146795
-0.186263
-0.219556
-0.241854
-0.25118
-0.245701
-0.225799
-0.193391
-0.152954
-0.10784
-0.0616233
-0.0176979
0.0210352
0.0524199
0.0751731
0.0889067
0.0940391
0.0916566
0.0833211
0.0708489
0.0560979
0.0407826
0.0263262
0.0137748
0.00374134
-0.00355309
-0.00806567
-0.00999984
-0.0101422
-0.00885674
-0.00750432
-0.148965
-0.190161
-0.225974
-0.251301
-0.263906
-0.261403
-0.243724
-0.212304
-0.171042
-0.122918
-0.0713375
-0.0197736
0.0285274
0.0708171
0.105021
0.129838
0.144752
0.149999
0.146472
0.135582
0.119099
0.0989721
0.0771583
0.055468
0.0354139
0.0182722
0.00493285
-0.00417615
-0.00952471
-0.0113682
-0.0113168
-0.1484
-0.190456
-0.227905
-0.255505
-0.270814
-0.271009
-0.255606
-0.225563
-0.184191
-0.134067
-0.078367
-0.0205505
0.0359054
0.0877899
0.13237
0.167553
0.191989
0.205125
0.207203
0.199192
0.182682
0.159723
0.132634
0.1038
0.0754477
0.0496566
0.0280606
0.0116864
0.000410467
-0.00583071
-0.00871373
-0.150526
-0.194008
-0.233359
-0.263208
-0.280907
-0.283304
-0.269558
-0.240233
-0.198249
-0.145892
-0.0861776
-0.022577
0.0412399
0.101691
0.155523
0.200022
0.233176
0.253802
0.261605
0.257173
0.2419
0.217854
0.187563
0.153792
0.119265
0.0865735
0.0579243
0.0348456
0.0175506
0.0062075
-0.000746734
-0.156954
-0.202758
-0.24447
-0.276563
-0.29618
-0.299975
-0.286856
-0.257153
-0.213697
-0.158675
-0.0950889
-0.0264857
0.0432917
0.110399
0.171247
0.222744
0.262483
0.288907
0.301402
0.300313
0.286896
0.263184
0.23178
0.195616
0.157656
0.120686
0.0872346
0.0591501
0.036915
0.0209031
0.00981086
-0.164982
-0.213106
-0.256782
-0.290351
-0.310814
-0.314811
-0.30117
-0.270194
-0.22492
-0.167636
-0.101454
-0.0300336
0.0426825
0.112764
0.176553
0.230907
0.27338
0.302379
0.317254
0.318308
0.306739
0.284515
0.254164
0.218546
0.180565
0.142866
0.107967
0.0777836
0.0529409
0.0339299
0.0198021
-0.169036
-0.217797
-0.26155
-0.294637
-0.314077
-0.316733
-0.301577
-0.269109
-0.222746
-0.165012
-0.0991773
-0.0289558
0.0417733
0.109258
0.170117
0.221549
0.261474
0.288637
0.302656
0.303992
0.293867
0.274133
0.247077
0.215216
0.181067
0.146784
0.114516
0.0859402
0.0616654
0.0421757
0.0269222
-0.163339
-0.209419
-0.249973
-0.279595
-0.295576
-0.295254
-0.277988
-0.244669
-0.199099
-0.144066
-0.0829373
-0.0193201
0.0432184
0.10143
0.152589
0.194637
0.226245
0.24684
0.256568
0.256207
0.247048
0.230747
0.209162
0.184202
0.157672
0.130916
0.105367
0.0821795
0.0617805
0.0445276
0.0302705
-0.144675
-0.183977
-0.217503
-0.240411
-0.250543
-0.245931
-0.226534
-0.193748
-0.151611
-0.103095
-0.0515029
-0.000115421
0.0480953
0.0907045
0.125976
0.15292
0.171255
0.181324
0.183971
0.180372
0.171875
0.159846
0.145547
0.130049
0.114191
0.0982651
0.0827374
0.0680158
0.0542207
0.0414953
0.030047
-0.114056
-0.143035
-0.16638
-0.180098
-0.182801
-0.173352
-0.152421
-0.121933
-0.0859103
-0.0473526
-0.00930912
0.0254912
0.0549018
0.0775465
0.0928828
0.10116
0.103272
0.100566
0.0946207
0.087004
0.0790731
0.0718243
0.0658173
0.0611691
0.0576272
0.0543358
0.050686
0.0462364
0.0407307
0.0340547
0.0266896
-0.0766335
-0.0935333
-0.105322
-0.109026
-0.104115
-0.0902815
-0.0688976
-0.0423313
-0.0143306
0.0122423
0.0347586
0.0511798
0.0602856
0.0618032
0.0563893
0.0454936
0.0311167
0.0155236
0.000936133
-0.0107616
-0.0182545
-0.0209365
-0.018937
-0.0130513
-0.00456337
0.00463001
0.0129173
0.0190394
0.022353
0.0224776
0.0200318
-0.0399214
-0.0454064
-0.0465552
-0.0414027
-0.0301957
-0.0133211
0.00729231
0.0290012
0.0485097
0.0632216
0.0710002
0.0704965
0.0613367
0.0441969
0.0207178
-0.00670342
-0.0352205
-0.0618898
-0.0840307
-0.0995524
-0.107198
-0.106672
-0.0986284
-0.084543
-0.0664672
-0.0470066
-0.0285295
-0.0129541
-0.0012765
0.00585806
0.00900966
-0.0111347
-0.00806767
-0.00148739
0.00975765
0.02487
0.0430199
0.0619599
0.0789768
0.0912817
0.096592
0.0932111
0.0803216
0.0581362
0.0279338
-0.00806373
-0.046934
-0.0853846
-0.120127
-0.148253
-0.167564
-0.176811
-0.175818
-0.165447
-0.147453
-0.12421
-0.0985077
-0.0730923
-0.0502921
-0.0313982
-0.0173335
-0.00784249
0.00524144
0.0127643
0.0231387
0.0370282
0.0534004
0.0712825
0.0883842
0.102114
0.110121
0.110392
0.101507
0.0828959
0.0549708
0.0191459
-0.022284
-0.066376
-0.109845
-0.149415
-0.18217
-0.20586
-0.219129
-0.221636
-0.214033
-0.197841
-0.175215
-0.148495
-0.120362
-0.0932639
-0.0687295
-0.0479925
-0.0313718
0.00870646
0.0166516
0.0270947
0.0405782
0.0561529
0.0729799
0.0889737
0.1018
0.109398
0.109908
0.101959
0.084896
0.058906
0.0250579
-0.0147834
-0.058133
-0.102128
-0.143813
-0.180434
-0.209698
-0.229987
-0.240481
-0.241191
-0.232892
-0.216982
-0.194744
-0.168373
-0.140166
-0.111833
-0.0849623
-0.0606833
0.00243015
0.00793933
0.0159385
0.0271608
0.04098
0.0568864
0.0731649
0.0878024
0.0988599
0.1045
0.103178
0.0938609
0.0761621
0.0504226
0.0176937
-0.0203529
-0.0615717
-0.103537
-0.143757
-0.179878
-0.209874
-0.232198
-0.245879
-0.250558
-0.246466
-0.233394
-0.212741
-0.186426
-0.156301
-0.124325
-0.0925791
-0.00839282
-0.0064713
-0.00180241
0.00672415
0.0189197
0.0346842
0.052739
0.0713878
0.0886927
0.102733
0.111652
0.113865
0.108221
0.0941372
0.0716635
0.0414923
0.00491879
-0.0362491
-0.0798225
-0.123369
-0.164388
-0.200494
-0.229584
-0.249992
-0.26061
-0.259578
-0.247344
-0.225322
-0.19545
-0.16003
-0.122087
-0.0184002
-0.0196514
-0.0178086
-0.0113876
-0.000161101
0.0161428
0.0366562
0.059962
0.0840963
0.10704
0.126623
0.140727
0.147475
0.145409
0.133634
0.111919
0.0807534
0.0413502
-0.00440825
-0.0540518
-0.104682
-0.153176
-0.196432
-0.231613
-0.256396
-0.267489
-0.264435
-0.248118
-0.220483
-0.184054
-0.142573
-0.0240208
-0.0270478
-0.0267849
-0.0214886
-0.0106423
0.0062794
0.0287325
0.0555363
0.0847663
0.114382
0.142034
0.165265
0.181702
0.189274
0.186401
0.172164
0.146426
0.10991
0.0641997
0.0117031
-0.0444897
-0.100823
-0.153558
-0.199086
-0.234261
-0.254871
-0.259777
-0.249384
-0.225559
-0.190857
-0.149389
-0.0239087
-0.0271475
-0.027267
-0.0225014
-0.0122213
0.00417126
0.0263748
0.0534274
0.0835956
0.114995
0.14537
0.17227
0.193237
0.206017
0.208766
0.20024
0.179952
0.148274
0.106479
0.0567293
0.00195731
-0.0543364
-0.108368
-0.156393
-0.195056
-0.21998
-0.229695
-0.224379
-0.205586
-0.175662
-0.138519
-0.0190939
-0.0215139
-0.0214004
-0.0172061
-0.00837063
0.00567109
0.0247076
0.0480326
0.0742708
0.101894
0.12903
0.153606
0.173498
0.186716
0.191577
0.186883
0.172063
0.147277
0.113466
0.0723525
0.0263543
-0.0215825
-0.0682263
-0.110334
-0.144962
-0.168349
-0.179174
-0.177183
-0.16376
-0.140743
-0.111439
-0.0120089
-0.013206
-0.0127484
-0.00945044
-0.00295047
0.00716391
0.0207707
0.0373791
0.0560836
0.075842
0.0953616
0.113196
0.12785
0.137903
0.142141
0.139674
0.130048
0.11332
0.0901009
0.0615582
0.0293594
-0.00443687
-0.0375564
-0.0677005
-0.0927725
-0.110202
-0.118863
-0.118442
-0.110053
-0.0948948
-0.075393
0.0792905
0.103922
0.126847
0.14546
0.157912
0.162128
0.156837
0.1413
0.116259
0.0822864
0.0406168
-0.00690508
-0.0579155