# vtk DataFile Version 2.0
Func
ASCII
DATASET RECTILINEAR_GRID
DIMENSIONS 31 31 31
X_COORDINATES 31 double
-9.67742
-9.03226
-8.3871
-7.74194
-7.09677
-6.45161
-5.80645
-5.16129
-4.51613
-3.87097
-3.22581
-2.58065
-1.93548
-1.29032
-0.645161
0
0.645161
1.29032
1.93548
2.58065
3.22581
3.87097
4.51613
5.16129
5.80645
6.45161
7.09677
7.74194
8.3871
9.03226
9.67742
Y_COORDINATES 31 double
-9.67742
-9.03226
-8.3871
-7.74194
-7.09677
-6.45161
-5.80645
-5.16129
-4.51613
-3.87097
-3.22581
-2.58065
-1.93548
-1.29032
-0.645161
0
0.645161
1.29032
1.93548
2.58065
3.22581
3.87097
4.51613
5.16129
5.80645
6.45161
7.09677
7.74194
8.3871
9.03226
9.67742
Z_COORDINATES 31 double
-9.67742
-9.03226
-8.3871
-7.74194
-7.09677
-6.45161
-5.80645
-5.16129
-4.51613
-3.87097
-3.22581
-2.58065
-1.93548
-1.29032
-0.645161
0
0.645161
1.29032
1.93548
2.58065
3.22581
3.87097
4.51613
5.16129
5.80645
6.45161
7.09677
7.74194
8.3871
9.03226
9.67742
POINT_DATA 29791
SCALARS data double 1
LOOKUP_TABLE default
0.0165921
0.0200228
0.0222438
0.0222942
0.019976
0.0149582
0.00753713
-0.00172899
-0.0119795
-0.0223754
-0.0319903
-0.0399022
-0.0452714
-0.0474202
-0.0458922
-0.0404952
-0.0313256
-0.0187713
-0.00349241
0.0136142
0.031473
0.048904
0.0647239
0.077834
0.0873364
0.0920966
0.0917659
0.0863681
0.0769203
0.0641332
0.0500125
0.0344502
0.0425547
0.0485496
0.0508049
0.048852
0.0420698
0.0308184
0.0159115
-0.00118378
-0.0191089
-0.0363429
-0.0513526
-0.0627186
-0.0692677
-0.0701711
-0.0650167
-0.0538486
-0.0371756
-0.0159425
0.00852225
0.0345989
0.0604916
0.0843818
0.104569
0.119641
0.127805
0.128569
0.121926
0.10921
0.0915471
0.0715228
0.0594098
0.0745499
0.0866354
0.0932453
0.0935073
0.0863893
0.0722048
0.0519642
0.0277756
0.00150088
-0.0247421
-0.0487858
-0.0685903
-0.0824271
-0.0890183
-0.0876391
-0.078173
-0.0611281
-0.0376036
-0.00922213
0.0219881
0.0537468
0.0837157
0.109686
0.129791
0.141742
0.144736
0.138825
0.125421
0.105845
0.0830828
0.0884511
0.112245
0.132172
0.144983
0.149329
0.143666
0.128192
0.103981
0.0737097
0.0396342
0.00436501
-0.0293856
-0.0590215
-0.0822909
-0.0974587
-0.103435
-0.099844
-0.0870485
-0.0661168
-0.0387466
-0.00713127
0.0262132
0.0586682
0.0877239
0.11122
0.126636
0.132929
0.12991
0.118975
0.10137
0.0801233
0.116178
0.148619
0.176643
0.196305
0.205797
0.203082
0.188161
0.162051
0.127829
0.0879647
0.0453692
0.00311135
-0.0358257
-0.0687997
-0.0937018
-0.109101
-0.114321
-0.109472
-0.0954201
-0.0737127
-0.0464405
-0.016064
0.0148101
0.0436414
0.0681974
0.0860189
0.095875
0.0973563
0.091562
0.0794638
0.063719
0.136667
0.175793
0.210342
0.235883
0.25028
0.251115
0.238186
0.212369
0.176908
0.134291
0.0874997
0.0397157
-0.00592573
-0.0466006
-0.0799906
-0.104431
-0.118986
-0.123485
-0.118498
-0.105261
-0.0855526
-0.0615309
-0.035533
-0.00987723
0.013353
0.0320252
0.0448261
0.051136
0.0516337
0.0468819
0.0389437
0.145378
0.187688
0.225681
0.25473
0.272575
0.276621
0.266502
0.242928
0.209053
0.167193
0.120169
0.0710205
0.0227701
-0.021823
-0.0604459
-0.0913668
-0.113501
-0.126446
-0.13046
-0.126393
-0.115582
-0.0997165
-0.0806712
-0.0603439
-0.040481
-0.0226946
-0.00825252
0.00208493
0.00854965
0.0112624
0.0115431
0.141001
0.182427
0.220104
0.249516
0.268507
0.274526
0.267139
0.246914
0.216706
0.178541
0.134909
0.088509
0.0420378
-0.00202512
-0.0415737
-0.0749871
-0.101179
-0.119625
-0.130339
-0.133817
-0.130945
-0.122901
-0.11103
-0.0967201
-0.081282
-0.0657418
-0.0512099
-0.0384849
-0.027699
-0.0191049
-0.0120421
0.125662
0.162655
0.19658
0.223289
0.240912
0.24714
0.241577
0.224712
0.198996
0.166127
0.128205
0.0874923
0.046251
0.00655434
-0.0298324
-0.061536
-0.0876067
-0.10753
-0.121205
-0.128885
-0.131112
-0.128638
-0.12234
-0.11314
-0.101925
-0.0892081
-0.0758779
-0.0626731
-0.0499292
-0.0381282
-0.0270281
0.104086
0.134461
0.162328
0.184068
0.198184
0.202729
0.197441
0.182818
0.160921
0.133193
0.101392
0.0673925
0.0330388
-1.4005e-06
-0.030332
-0.0568863
-0.0789424
-0.0961217
-0.10836
-0.115849
-0.118981
-0.118286
-0.114369
-0.107856
-0.0993424
-0.0890373
-0.0776158
-0.0656825
-0.0535717
-0.0418022
-0.0301919
0.0817606
0.105008
0.126005
0.141705
0.150969
0.152243
0.14546
0.131212
0.111293
0.087033
0.0600029
0.0318377
0.00410797
-0.0218099
-0.0448113
-0.0641082
-0.0792345
-0.0900356
-0.0966313
-0.0993565
-0.0987005
-0.095246
-0.0896087
-0.0823871
-0.0741071
-0.0649796
-0.0555422
-0.0462373
-0.0371795
-0.0287205
-0.0203289
0.0630355
0.0800552
0.0947232
0.104509
0.10854
0.105612
0.095872
0.0800594
0.0598796
0.0367106
0.0121279
-0.012267
-0.0349745
-0.0547254
-0.07056
-0.081873
-0.0884229
-0.0903175
-0.0879724
-0.0820458
-0.0733657
-0.0628533
-0.0514381
-0.0399887
-0.0292249
-0.0196951
-0.0119198
-0.00618984
-0.00220556
3.32976e-05
0.00178642
0.0499186
0.0623689
0.0720996
0.0769876
0.0763097
0.0691258
0.0557652
0.0371322
0.0149909
-0.00910779
-0.0334267
-0.0562166
-0.0758589
-0.0910079
-0.100687
-0.104352
-0.101911
-0.0937241
-0.0805534
-0.0634981
-0.0439024
-0.023249
-0.00303241
0.0153546
0.0307642
0.0420168
0.0484833
0.0499852
0.0473817
0.0411615
0.0335939
0.0419563
0.0515396
0.0579805
0.0594534
0.0552867
0.0447134
0.0281814
0.00671863
-0.0177918
-0.0435918
-0.0687191
-0.0911877
-0.10915
-0.121064
-0.125815
-0.122808
-0.112014
-0.0939833
-0.0698075
-0.0410502
-0.00963777
0.0222794
0.0525097
0.0789886
0.0999952
0.113534
0.118771
0.115589
0.105481
0.0894874
0.0710202
0.0371112
0.0450849
0.0496896
0.0493238
0.0433187
0.0310104
0.0128761
-0.0100245
-0.0357481
-0.0624049
-0.0878651
-0.10994
-0.12656
-0.135963
-0.136846
-0.128491
-0.110847
-0.0845602
-0.0509581
-0.0119882
0.0299041
0.0719425
0.111256
0.145105
0.171172
0.18661
0.190334
0.182241
0.164438
0.138502
0.108945
0.0331222
0.0401771
0.0440298
0.0432766
0.0372517
0.025351
0.00798056
-0.0138968
-0.0384379
-0.0637884
-0.0878131
-0.108264
-0.122963
-0.129997
-0.127898
-0.115799
-0.0935439
-0.0617611
-0.0218631
0.0239921
0.0730224
0.122004
0.167549
0.206378
0.235675
0.251857
0.253594
0.240756
0.215957
0.181198
0.141891
0.0286835
0.0351459
0.0390322
0.0391456
0.0348484
0.0255691
0.0115457
-0.00649588
-0.027019
-0.0484137
-0.0687525
-0.0859299
-0.0978278
-0.102509
-0.0984065
-0.0845048
-0.0604829
-0.026819
0.0151726
0.063353
0.114862
0.166301
0.214024
0.254445
0.284439
0.299914
0.299346
0.282534
0.25241
0.211223
0.164952
0.0239398
0.0301059
0.0346923
0.0367238
0.0356103
0.0307851
0.0222384
0.0103385
-0.00386375
-0.019189
-0.0341115
-0.046855
-0.0555266
-0.058289
-0.0535505
-0.0401581
-0.0175707
0.0140037
0.0535319
0.0991296
0.148134
0.197266
0.242918
0.281465
0.309687
0.323277
0.320575
0.301274
0.268379
0.224164
0.174777
0.0201556
0.0265363
0.0324921
0.0372623
0.0402947
0.0409891
0.0390381
0.034381
0.0274916
0.0190125
0.00995414
0.00165097
-0.00432996
-0.00633104
-0.00278225
0.00760001
0.0256194
0.0514306
0.084425
0.123163
0.165407
0.208249
0.248374
0.282356
0.307078
0.318296
0.314274
0.294562
0.261978
0.218607
0.170369
0.0188112
0.0261409
0.0340995
0.0420997
0.0495853
0.055877
0.0603608
0.0625424
0.0623469
0.0598821
0.0556414
0.0505104
0.0457188
0.0427317
0.0430881
0.0482039
0.0591649
0.0765325
0.100195
0.12926
0.162051
0.196185
0.228805
0.256846
0.277427
0.28659
0.282565
0.26473
0.235503
0.1966
0.153384
0.0206182
0.02962
0.0399863
0.0512357
0.0627516
0.0737384
0.0833121
0.090611
0.0951466
0.0965969
0.0950398
0.0910014
0.0854417
0.0796758
0.075229
0.0736462
0.0762793
0.0840765
0.0974077
0.115929
0.138539
0.163423
0.188239
0.210347
0.22717
0.235163
0.232558
0.21856
0.195038
0.163251
0.127786
0.0249474
0.0359804
0.048689
0.0626261
0.0770735
0.0911107
0.103663
0.113624
0.120288
0.123074
0.121809
0.116803
0.108854
0.0991914
0.0893431
0.0809563
0.0755865
0.0744821
0.0783962
0.0874355
0.10099
0.11775
0.13585
0.153063
0.167121
0.174938
0.174782
0.165714
0.14902
0.125499
0.0988793
0.029929
0.042708
0.0570754
0.0725708
0.0883736
0.103474
0.116715
0.126897
0.133296
0.135256
0.132525
0.125339
0.114431
0.100991
0.0865394
0.0727609
0.0613058
0.0535814
0.0505647
0.0526506
0.0595708
0.0703924
0.0836307
0.0974139
0.109757
0.118018
0.120548
0.11633
0.106134
0.0903821
0.0719865
0.0331725
0.0467169
0.0614977
0.077034
0.0924529
0.106732
0.118753
0.127372
0.131991
0.132029
0.127283
0.118009
0.104933
0.0891993
0.0722707
0.0557691
0.0412991
0.0302578
0.0236639
0.0220173
0.025222
0.0325787
0.0428756
0.0545268
0.065806
0.074466
0.0790063
0.0784301
0.0731293
0.0632905
0.0511435
0.0327656
0.0456331
0.0592974
0.0732917
0.0867788
0.0988258
0.108459
0.114706
0.117165
0.11541
0.109351
0.0992937
0.0859436
0.0703584
0.0538551
0.0378752
0.0238331
0.0129561
0.00613906
0.00382704
0.00595229
0.01193
0.0207339
0.0310142
0.041292
0.0496673
0.0548585
0.0559911
0.0532573
0.0467574
0.0382178
0.0280637
0.0387842
0.0499258
0.0610967
0.0715925
0.0806662
0.0875612
0.0915459
0.0924043
0.0898818
0.083996
0.0750746
0.0637516
0.0509245
0.0376742
0.0251566
0.0144818
0.00658916
0.00213544
0.00140524
0.00426714
0.0101773
0.0182453
0.0273329
0.0362124
0.0432945
0.0475749
0.0483871
0.045886
0.0402101
0.032756
0.0200587
0.0276079
0.0353612
0.0430426
0.0501523
0.0561888
0.0606407
0.0630279
0.0632651
0.0612365
0.0570205
0.0509119
0.0434129
0.0351966
0.0270455
0.0197694
0.0141187
0.0106946
0.00987189
0.0117379
0.0160678
0.0223366
0.0297763
0.0374563
0.0444082
0.0493337
0.0515317
0.0505864
0.0467222
0.0401828
0.0321578
0.0109237
0.0150908
0.0193727
0.0236464
0.0276358
0.0310893
0.0337207
0.0352683
0.0357113
0.0350202
0.033283
0.0307162
0.0276553
0.0245281
0.0218108
0.0199731
0.019421
0.0204398
0.0231476
0.0274579
0.0330716
0.0394937
0.0460826
0.0521122
0.0568661
0.0593205
0.0590578
0.0558988
0.0501756
0.0422393
0.0331462
0.0032155
0.00466161
0.00617794
0.00780242
0.00944605
0.011049
0.0125007
0.0136939
0.0146246
0.0153029
0.0157943
0.0162249
0.0167741
0.0176575
0.0190993
0.0212997
0.0244012
0.028457
0.0334075
0.039061
0.0450954
0.0510771
0.0565
0.0608321
0.063581
0.0639768
0.0618189
0.0571295
0.0502839
0.041695
0.0322447
-0.00130335
-0.00145449
-0.00156435
-0.00149365
-0.00122421
-0.000697621
5.82024e-05
0.00103137
0.00221583
0.00363249
0.00531807
0.00732842
0.00973374
0.0126091
0.0160192
0.0200008
0.0245457
0.0295857
0.0349828
0.0405218
0.0459163
0.0508243
0.054878
0.0577152
0.0590227
0.0582666
0.0553993
0.0504719
0.0438871
0.0360241
0.0275721
-0.00250568
-0.00312798
-0.00376314
-0.00421437
-0.00445271
-0.00440049
-0.00403647
-0.00334881
-0.00234043
-0.000991602
0.000715964
0.00280192
0.005284
0.00817322
0.0114663
0.0151373
0.0191297
0.0233503
0.0276665
0.0319044
0.0358548
0.0392834
0.0419522
0.0436376
0.0441575
0.0431933
0.0407257
0.0368108
0.0317908
0.0259366
0.0197334
0.0223336
0.026889
0.0294289
0.0289458
0.0250725
0.0173824
0.00635159
-0.00724429
-0.0221406
-0.0371105
-0.0508104
-0.0619056
-0.069185
-0.0716772
-0.0687356
-0.0601025
-0.0459421
-0.0268461
-0.00380269
0.0218525
0.0485256
0.0744739
0.0979522
0.117346
0.131334
0.138187
0.137503
0.129367
0.115177
0.0961033
0.074779
0.0463432
0.0571189
0.0645429
0.0667742
0.0630573
0.0526312
0.036066
0.0144523
-0.0100693
-0.0355384
-0.0597782
-0.0805988
-0.0959818
-0.104268
-0.104299
-0.0955207
-0.0780401
-0.0526352
-0.0207126
0.0157665
0.0544247
0.0926383
0.127756
0.157306
0.179236
0.190823
0.191564
0.181559
0.162556
0.136284
0.10628
0.080331
0.100619
0.116155
0.124087
0.123082
0.111895
0.0910309
0.0617955
0.0272657
-0.00988506
-0.0466398
-0.0799185
-0.106834
-0.124954
-0.132497
-0.128481
-0.112804
-0.0862611
-0.0504974
-0.00791107
0.0385217
0.0854724
0.129538
0.167511
0.19669
0.213611
0.217354
0.208159
0.187853
0.158468
0.124172
0.120181
0.152275
0.17841
0.194658
0.199002
0.189587
0.166743
0.131797
0.0886701
0.0405944
-0.00871585
-0.0554119
-0.0958258
-0.126791
-0.145887
-0.151631
-0.143568
-0.12231
-0.0894797
-0.0476096
6.12491e-05
0.0498409
0.0979001
0.140582
0.17475
0.196583
0.204817
0.199338
0.18202
0.154839
0.122103
0.158255
0.202198
0.239377
0.264945
0.276241
0.270822
0.248721
0.211116
0.16252
0.106467
0.0470907
-0.0112631
-0.064387
-0.10857
-0.14087
-0.159333
-0.163091
-0.152412
-0.128656
-0.0941612
-0.0520477
-0.00595683
0.0402713
0.0829122
0.118707
0.14391
0.156946
0.157384
0.146766
0.126715
0.101067
0.186283
0.239411
0.285549
0.319224
0.337314
0.336923
0.317771
0.280786
0.230724
0.171133
0.106231
0.0405114
-0.0216159
-0.0761918
-0.119987
-0.150722
-0.167168
-0.169207
-0.157786
-0.134818
-0.102997
-0.0655591
-0.0259827
0.0123004
0.0462247
0.0725112
0.0894022
0.0961477
0.0938101
0.0834609
0.0681195
0.198004
0.255538
0.306496
0.345176
0.368289
0.372707
0.357911
0.324554
0.277242
0.219253
0.154551
0.0874029
0.0220393
-0.037686
-0.0885577
-0.128202
-0.155177
-0.169029
-0.170257
-0.160221
-0.140987
-0.115128
-0.0854722
-0.0548632
-0.0258966
-0.00109419
0.0177799
0.0297445
0.0353404
0.0350208
0.0307867
0.191775
0.2482
0.29893
0.338461
0.363645
0.371384
0.361053
0.333087
0.291617
0.239471
0.180109
0.117282
0.0547385
-0.00407599
-0.0562409
-0.0995294
-0.132481
-0.154442
-0.165542
-0.166608
-0.159045
-0.144684
-0.125586
-0.103868
-0.0815073
-0.0601647
-0.0414476
-0.0264283
-0.0150028
-0.00725734
-0.00212091
0.170821
0.221395
0.267334
0.303669
0.327638
0.336397
0.329366
0.306871
0.2724
0.228277
0.177365
0.122774
0.0676174
0.0147634
-0.0333388
-0.0747877
-0.10828
-0.133135
-0.14927
-0.157126
-0.157576
-0.151812
-0.141212
-0.127217
-0.111199
-0.0940658
-0.077163
-0.0615197
-0.0472888
-0.0349084
-0.0239286
0.141892
0.183779
0.221926
0.252074
0.271963
0.279143
0.273204
0.254494
0.225885
0.189295
0.14708
0.101777
0.0559126
0.011793
-0.0286247
-0.0638294
-0.0927863
-0.114947
-0.13022
-0.138903
-0.141606
-0.139169
-0.13256
-0.122789
-0.110815
-0.0971099
-0.082749
-0.0686176
-0.0548901
-0.0420936
-0.0299233
0.112593
0.145243
0.174604
0.197138
0.211057
0.214342
0.20683
0.189008
0.163324
0.131508
0.095636
0.0579131
0.0204961
-0.0146824
-0.0460277
-0.0723598
-0.0929369
-0.107457
-0.116023
-0.119076
-0.117319
-0.111638
-0.103002
-0.0923833
-0.0806638
-0.0683367
-0.0563022
-0.0452611
-0.0351509
-0.0262965
-0.0179835
0.0886929
0.1134
0.13474
0.149766
0.157035
0.154915
0.143497
0.123486
0.097177
0.0663591
0.033122
-0.000351818
-0.0319625
-0.059871
-0.0826172
-0.0992038
-0.109128
-0.112384
-0.109433
-0.101124
-0.0886106
-0.0732448
-0.0564504
-0.0396077
-0.0239125
-0.0103967
6.14314e-05
0.00693234
0.0107539
0.0116775
0.0113549
0.0724842
0.0914448
0.10656
0.115296
0.116396
0.108518
0.0919641
0.06767
0.038013
0.00502982
-0.0289365
-0.0614527
-0.090191
-0.113132
-0.128711
-0.135933
-0.134432
-0.124488
-0.106999
-0.0834106
-0.0555958
-0.0257154
0.00397372
0.0312987
0.0543964
0.0712418
0.0808127
0.082704
0.0781143
0.0678845
0.0550106
0.0627663
0.0780863
0.0889909
0.0932074
0.0895405
0.0768455
0.0555444
0.0267461
-0.0069969
-0.0433424
-0.0795969
-0.112944
-0.140668
-0.160398
-0.170295
-0.169214
-0.156806
-0.133567
-0.100822
-0.0606616
-0.0157953
0.0306371
0.0753367
0.115111
0.147209
0.168322
0.177157
0.173373
0.158933
0.13548
0.107566
0.0562505
0.0693125
0.0776634
0.0792259
0.0728126
0.0574019
0.0334254
0.00203679
-0.0341254
-0.0725205
-0.11019
-0.143989
-0.170834
-0.18798
-0.193256
-0.185281
-0.163614
-0.128849
-0.0826257
-0.027579
0.03282
0.0944986
0.153131
0.204492
0.244907
0.26972
0.277308
0.267341
0.242537
0.205333
0.161806
0.049609
0.0609861
0.0679188
0.0685473
0.0617077
0.0464559
0.0231126
-0.00729933
-0.042301
-0.0793982
-0.11561
-0.147683
-0.172348
-0.186603
-0.188
-0.174903
-0.14669
-0.103903
-0.0482929
0.0171949
0.0885819
0.161114
0.229671
0.289194
0.335229
0.361949
0.367413
0.351248
0.316804
0.267168
0.20968
0.0411801
0.0510043
0.057311
0.0585317
0.0535747
0.0415421
0.022529
-0.00276408
-0.0323321
-0.0640343
-0.0951868
-0.122735
-0.143486
-0.154389
-0.152838
-0.136965
-0.105897
-0.0599547
-0.000749733
0.0687874
0.144542
0.221473
0.294049
0.356726
0.404555
0.430898
0.433553
0.412051
0.370144
0.311311
0.2437
0.0316042
0.0400983
0.0465317
0.0496954
0.0486046
0.0423735
0.0307743
0.014021
-0.00662575
-0.0296516
-0.0529597
-0.0739789
-0.0898474
-0.0976668
-0.0947985
-0.0791827
-0.0496342
-0.006091
0.0502293
0.116748
0.189617
0.263943
0.334225
0.394835
0.440666
0.464726
0.464627
0.439745
0.393927
0.330717
0.258507
0.0232185
0.0310609
0.0385192
0.044756
0.0488818
0.0499751
0.0474233
0.0408534
0.0306521
0.0175526
0.00289598
-0.0114007
-0.0229658
-0.0291819
-0.0274641
-0.0155849
0.00799943
0.0438562
0.0913636
0.148571
0.212231
0.277979
0.340727
0.395131
0.436229
0.457126
0.455316
0.429963
0.384673
0.322728
0.252185
0.0186181
0.0269341
0.0363844
0.0464396
0.0562444
0.0647878
0.0710594
0.074091
0.0734496
0.0690948
0.06161
0.0522458
0.0428609
0.0357641
0.0334617
0.0383391
0.052316
0.0765202
0.111027
0.154666
0.204992
0.258406
0.310493
0.356445
0.391663
0.409716
0.408025
0.385497
0.345209
0.289911
0.226837
0.0191403
0.0291235
0.0412858
0.0552862
0.0702198
0.0849472
0.0981061
0.108224
0.114266
0.115576
0.112133
0.104653
0.0945761
0.0839603
0.0752511
0.0709776
0.0734037
0.0841823
0.104061
0.132651
0.168343
0.208375
0.249103
0.286373
0.31606
0.332425
0.332861
0.316011
0.284228
0.239579
0.188148
0.0240054
0.0363665
0.0513271
0.0686031
0.087177
0.105782
0.122808
0.136452
0.145384
0.148587
0.145681
0.137054
0.123888
0.108077
0.0920259
0.0783603
0.069591
0.0677648
0.0741563
0.0890182
0.111464
0.139486
0.170174
0.200023
0.225414
0.241387
0.245369
0.235782
0.214204
0.181996
0.143974
0.03049
0.0450188
0.0619879
0.0810787
0.101156
0.120882
0.13855
0.152242
0.160636
0.162628
0.157726
0.146201
0.129119
0.108271
0.0859991
0.064928
0.0476512
0.0363997
0.0327434
0.0373434
0.0498221
0.0687544
0.0918364
0.116144
0.138541
0.154839
0.162583
0.160087
0.148231
0.127784
0.102357
0.0350336
0.0505089
0.0678856
0.086792
0.106043
0.124334
0.140032
0.151322
0.157107
0.156407
0.14881
0.134606
0.114812
0.0911158
0.0657162
0.0410857
0.0196931
0.00370731
-0.00527197
-0.00643771
0.000101425
0.0133032
0.0313235
0.0517307
0.0718467
0.08819
0.0985386
0.101255
0.096705
0.0852623
0.0695422
0.0347539
0.0492734
0.0650397
0.0816806
0.0980833
0.113104
0.125341
0.133252
0.136059
0.133024
0.123897
0.109026
0.0893656
0.0664272
0.0421407
0.0186539
-0.00189881
-0.017642
-0.0271836
-0.0297995
-0.0255342
-0.0152153
-0.000347168
0.0170642
0.0347886
0.0499714
0.0607508
0.0657042
0.064916
0.0585857
0.048611
0.028626
0.0402298
0.0525323
0.0652579
0.0774987
0.0883903
0.0968643
0.101756
0.102582
0.0988622
0.0904999
0.0778525
0.0617386
0.0433879
0.0243314
0.00624286
-0.00923921
-0.0206993
-0.0271147
-0.0279948
-0.0234517
-0.0142041
-0.00149056
0.0130718
0.0277035
0.040107
0.0488789
0.0529483
0.0523392
0.0472632
0.0391726
0.0180815
0.0254513
0.0332095
0.0412433
0.0489448
0.0557906
0.0610853
0.0640586
0.0644318
0.0619315
0.0565429
0.0485581
0.0385743
0.0274558
0.0162529
0.00608884
-0.00196443
-0.00701604
-0.00847104
-0.00612468
-0.000203099
0.00864393
0.0194136
0.0308584
0.0416483
0.0499867
0.0549671
0.0559353
0.0530058
0.0465098
0.0376623
0.00622335
0.00918262
0.012408
0.0160007
0.0196705
0.0232246
0.0263059
0.0284882
0.0295973
0.0294889
0.0281601
0.0257794
0.0226849
0.0193595
0.0163787
0.0143401
0.0137862
0.0151258
0.0185668
0.02406
0.031283
0.0396552
0.0483932
0.0565901
0.0633303
0.0672608
0.0679284
0.0650677
0.0589482
0.0500401
0.0394315
-0.00321231
-0.00360563
-0.00378299
-0.00344851
-0.0026349
-0.00130323
0.000451813
0.00244885
0.00455147
0.00668152
0.00881132
0.0109835
0.0133115
0.015967
0.0191527
0.0230643
0.0278498
0.0335694
0.0401629
0.0474213
0.0549866
0.0623697
0.0689919
0.0742398
0.0775393
0.0779153
0.0752446
0.0695862
0.0612845
0.0508886
0.0393136
-0.00775925
-0.00981566
-0.0117028
-0.01303
-0.0136973
-0.0135278
-0.0125157
-0.0106866
-0.0081561
-0.00497037
-0.00117803
0.00318455
0.00809479
0.0135408
0.0195094
0.0259696
0.0328547
0.0400459
0.0473609
0.0545422
0.0612642
0.0671483
0.0717941
0.0748135
0.0758759
0.0743252
0.0702416
0.0637386
0.0552393
0.0452578
0.034511
-0.00746395
-0.00955411
-0.0115778
-0.013126
-0.0141058
-0.0143395
-0.0137677
-0.0123831
-0.0102611
-0.00742662
-0.00392439
0.000192179
0.00486202
0.0100168
0.0155767
0.0214446
0.0274988
0.0335887
0.0395322
0.0451125
0.0500854
0.0541899
0.0571699
0.0587948
0.0588848
0.0570599
0.0533865
0.0479738
0.0412255
0.0335407
0.0253992
0.0211084
0.0248805
0.0261957
0.0241136
0.0182806
0.00835934
-0.00512354
-0.0212002
-0.0384255
-0.0553639
-0.0704623
-0.0821899
-0.0891722
-0.0903231
-0.0849447
-0.0727992
-0.0541467
-0.0297488
-0.000831135
0.0309772
0.0637485
0.0953904
0.123817
0.147112
0.163712
0.171546
0.17012
0.159736
0.142007
0.118408
0.0919914
0.0463699
0.0564675
0.0625437
0.0627622
0.0563612
0.0427103
0.0224017
-0.003173
-0.0315697
-0.0604968
-0.0874382
-0.109881
-0.125531
-0.132525
-0.1296
-0.116205
-0.0925706
-0.0597124
-0.0193809
0.026029
0.0736417
0.120309
0.162864
0.198373
0.224413
0.237723
0.237684
0.224735
0.200863
0.16823
0.131033
0.0835702
0.103883
0.118515
0.124535
0.120529
0.105401
0.0796201
0.044882
0.00471598
-0.0377451
-0.079002
-0.115505
-0.143956
-0.161602
-0.166472
-0.157544
-0.134835
-0.099419
-0.0533672
0.000369673
0.0581696
0.116015
0.169819
0.215755
0.250616
0.270228
0.273472
0.261023
0.234981
0.197951
0.154926
0.128119
0.161471
0.187716
0.202729
0.204315
0.190776
0.162291
0.120639
0.0703308
0.0151618
-0.0405488
-0.09235
-0.136031
-0.167987
-0.185509
-0.187004
-0.172101
-0.14169
-0.0978549
-0.0437481
0.0166505
0.0788447
0.138198
0.19031
0.231429
0.256902
0.265212
0.25662
0.233351
0.197989
0.155821
0.170968
0.217574
0.256147
0.281545
0.290827
0.281702
0.25392
0.209127
0.152513
0.0882247
0.0210678
-0.0439273
-0.101922
-0.148678
-0.180881
-0.196394
-0.194375
-0.175335
-0.141074
-0.0945559
-0.0396632
0.0191177
0.0770873
0.129717
0.173072
0.202519
0.216195
0.213952
0.197709
0.169687
0.134704
0.202278
0.259195
0.307875
0.342511
0.359633
0.356479
0.332371
0.288675
0.230829
0.162969
0.0899759
0.0170306
-0.050811
-0.109031
-0.153987
-0.183165
-0.195307
-0.19047
-0.169987
-0.136333
-0.0929158
-0.0437738
0.00678285
0.0545356
0.0957441
0.126264
0.144053
0.148509
0.141092
0.123413
0.0993762
0.214842
0.276713
0.33096
0.371571
0.394892
0.397912
0.379629
0.341067
0.287412
0.222432
0.150654
0.0769421
0.00610321
-0.0574947
-0.110238
-0.149503
-0.173768
-0.182682
-0.177027
-0.158613
-0.130095
-0.0947251
-0.0560485
-0.0175983
0.0174272
0.0457415
0.0653312
0.0752307
0.0763746
0.0696548
0.0578158
0.207065
0.267766
0.322054
0.364194
0.390709
0.398595
0.386708
0.35575
0.310261
0.253396
0.189012
0.121301
0.05445
-0.00768404
-0.0618425
-0.105562
-0.137266
-0.156326
-0.163033
-0.158518
-0.144602
-0.123621
-0.0981848
-0.0709493
-0.0443743
-0.0207379
-0.00184148
0.0111472
0.0187013
0.0210567
0.0198579
0.183239
0.237659
0.2871
0.326464
0.352723
0.363093
0.35648
0.333357
0.297415
0.251128
0.197569
0.140106
0.0821371
0.0268199
-0.0231312
-0.0655992
-0.0991347
-0.123
-0.137153
-0.142181
-0.139197
-0.129715
-0.115486
-0.0983319
-0.0799829
-0.0618138
-0.0453176
-0.0316984
-0.0207842
-0.0128049
-0.00689238
0.151629
0.196929
0.238455
0.271904
0.294804
0.304713
0.300736
0.283252
0.255157
0.21837
0.175299
0.128601
0.0809623
0.0348964
-0.00741981
-0.0442593
-0.0743991
-0.0971536
-0.112364
-0.120343
-0.121802
-0.117764
-0.109441
-0.0981204
-0.0850404
-0.0710396
-0.0573408
-0.0450479
-0.0340688
-0.0248125
-0.0166558
0.121119
0.157051
0.189826
0.215888
0.233252
0.239844
0.235037
0.219261
0.194878
0.163538
0.127296
0.0884134
0.0491771
0.0117171
-0.0221303
-0.0509227
-0.0736646
-0.0898391
-0.0994009
-0.102729
-0.100563
-0.0939235
-0.0839971
-0.072028
-0.0591866
-0.0463424
-0.0346061
-0.0249136
-0.0169954
-0.0111044
-0.00621627
0.0979259
0.126185
0.151204
0.169969
0.180809
0.181955
0.17305
0.154676
0.129034
0.0978279
0.0631491
0.0272834
-0.00746893
-0.0389825
-0.065455
-0.085524
-0.0983396
-0.103609
-0.101599
-0.0930889
-0.0792988
-0.0617847
-0.042285
-0.0225697
-0.00424924
0.0111265
0.0223289
0.0286023
0.0306444
0.0286923
0.0248108
0.0837583
0.106791
0.125963
0.138571
0.143059
0.13787
0.122854
0.0987885
0.0680193
0.0325654
-0.00512673
-0.042386
-0.0765262
-0.105071
-0.125947
-0.137646
-0.139339
-0.130953
-0.113186
-0.0874682
-0.0558626
-0.0209087
0.0146053
0.0478812
0.0764107
0.0973772
0.109207
0.111298
0.104988
0.0912816
0.0738034
0.0760713
0.0958981
0.111106
0.119139
0.118423
0.107528
0.0864074
0.0559997
0.0189126
-0.0224339
-0.0651047
-0.105872
-0.141465
-0.168846
-0.18547
-0.189508
-0.18003
-0.15712
-0.121923
-0.0766161
-0.0242784
0.0313238
0.0860669
0.135821
0.176891
0.204809
0.217497
0.214466
0.197827
0.169525
0.135037
0.0700792
0.0876458
0.100172
0.105218
0.101163
0.0866542
0.0616362
0.0270803
-0.0142678
-0.0597145
-0.105944
-0.149249
-0.185814
-0.212038
-0.224858
-0.222053
-0.202487
-0.166295
-0.114962
-0.0513201
0.0205964
0.0958281
0.168916
0.234372
0.287264
0.321381
0.334085
0.324958
0.296907
0.252833
0.200081
0.0614677
0.0767002
0.0871785
0.0906772
0.0855892
0.0706237
0.0455983
0.0113282
-0.0296326
-0.074624
-0.120264
-0.162664
-0.197712
-0.221433
-0.230352
-0.221871
-0.194582
-0.14852
-0.0852942
-0.00813066
0.0782775
0.168076
0.254756
0.331716
0.392985
0.430818
0.442073
0.426346
0.387229
0.328435
0.258891
0.0485243
0.060937
0.0697156
0.0730059
0.0693189
0.0574176
0.0368839
0.00815995
-0.0268064
-0.0657772
-0.10572
-0.142967
-0.173483
-0.193204
-0.198437
-0.186283
-0.15501
-0.104382
-0.0358483
0.0473564
0.140331
0.236814
0.329734
0.411827
0.476451
0.514797
0.523329
0.501591
0.45362
0.38364
0.301617
0.0327865
0.0422386
0.0498416
0.0542454
0.0541521
0.0483608
0.0361234
0.0173182
-0.00706217
-0.0355463
-0.0658247
-0.0948316
-0.118947
-0.134307
-0.137197
-0.124496
-0.0941143
-0.0453682
0.0207473
0.101397
0.19197
0.286353
0.377469
0.457925
0.520852
0.55697
0.562496
0.536823
0.484098
0.408652
0.320793
0.0180504
0.0252265
0.032603
0.0393714
0.0444242
0.0465566
0.0446252
0.0378315
0.026054
0.00980736
-0.00953765
-0.0297402
-0.0478134
-0.0602769
-0.0635267
-0.0542831
-0.0300603
0.0103996
0.066794
0.137026
0.217198
0.301827
0.384338
0.457684
0.515182
0.547683
0.551277
0.525106
0.473047
0.399121
0.313245
0.00833796
0.0147005
0.0230937
0.0331686
0.0439306
0.0541186
0.062177
0.0666305
0.0663297
0.0608506
0.0506279
0.0370614
0.0224698
0.00990218
0.00280522
0.00458725
0.0181312
0.0453249
0.0866744
0.141009
0.205401
0.275311
0.34501
0.40814
0.458502
0.487571
0.491408
0.468814
0.42306
0.357506
0.28104
0.00583911
0.0130858
0.0235771
0.0372528
0.0531165
0.0698134
0.0854229
0.0979146
0.10541
0.106758
0.101657
0.0908354
0.0760643
0.0600276
0.0460275
0.0375715
0.0378871
0.0494378
0.0735011
0.109833
0.15653
0.210096
0.265791
0.318118
0.361529
0.388446
0.394978
0.379556
0.344615
0.292647
0.231073
0.00979269
0.0190956
0.0320593
0.0487217
0.0679929
0.0884308
0.107869
0.123941
0.134451
0.137848
0.133408
0.121457
0.103416
0.0817109
0.0595175
0.0403756
0.0277271
0.0244396
0.0323783
0.0520553
0.0824524
0.121036
0.164026
0.206806
0.244536
0.270732
0.281644
0.275385
0.253483
0.217531
0.173297
0.0167607
0.0281647
0.042921
0.0610304
0.0812916
0.102246
0.121656
0.137091
0.146433
0.148069
0.141175
0.125929
0.103577
0.0763612
0.0472973
0.0198265
-0.00260543
-0.016991
-0.0211671
-0.014151
0.00367128
0.0305266
0.0634583
0.0986641
0.132011
0.15812
0.173504
0.176106
0.166639
0.145926
0.118152
0.0221351
0.0344191
0.0492929
0.0666859
0.0853628
0.10397
0.120408
0.132438
0.138295
0.136569
0.126557
0.108455
0.0834131
0.0534773
0.0213961
-0.00968059
-0.0365646
-0.0564151
-0.0670961
-0.0674729
-0.0575855
-0.0386796
-0.0130525
0.0162178
0.0456909
0.0710275
0.0891565
0.0980727
0.0978842
0.0888925
0.073955
0.0221535
0.0332359
0.0460376
0.0604813
0.0754442
0.0898241
0.101847
0.109667
0.111975
0.107694
0.0963357
0.0781465
0.054151
0.0261023
-0.00367928
-0.032551
-0.0578394
-0.0771521
-0.0886664
-0.0913687
-0.0851956
-0.0710603
-0.0507385
-0.0266548
-0.00155909
0.0211547
0.0389854
0.0502171
0.0546323
0.052289
0.0450782
0.0154341
0.0231483
0.0318855
0.0416868
0.0517024
0.0612034
0.068874
0.0733603
0.0737656
0.0693511
0.0598073
0.0453654
0.0268229
0.0055064
-0.0168509
-0.0382911
-0.0568458
-0.0707647
-0.0787265
-0.0800143
-0.0746154
-0.0632368
-0.0472204
-0.0283847
-0.00878682
0.00902324
0.0232284
0.0325958
0.0368465
0.0360372
0.0314561
0.00381676
0.00680334
0.0104425
0.0149757
0.0199344
0.0250125
0.029395
0.0322198
0.0328758
0.0308812
0.0260134
0.0183884
0.00847797
-0.00291116
-0.0147172
-0.0257415
-0.0347874
-0.0408076
-0.0430399
-0.0411209
-0.0351465
-0.025675
-0.0136681
-0.000381301
0.012797
0.0240537
0.032285
0.0368284
0.03753
0.0345908
0.0289973
-0.00882925
-0.0105471
-0.0117367
-0.0119031
-0.011128
-0.00933207
-0.00688488
-0.00423673
-0.001845
-3.55208e-05
0.000971434
0.00111612
0.000517437
-0.000531179
-0.00160111
-0.00219057
-0.00179934
-7.6039e-06
0.00345178
0.00862927
0.0153305
0.0231221
0.0313685
0.0393005
0.0461132
0.0506029
0.0522961
0.0510554
0.0469383
0.0403289
0.0320781
-0.0177345
-0.0226169
-0.0270088
-0.0302221
-0.0320467
-0.0321734
-0.0306284
-0.0275835
-0.0234211
-0.0183809
-0.0127081
-0.00661248
-0.000249123
0.00629199
0.0129766
0.0198053
0.0267844
0.0338955
0.0410676
0.0481476
0.0548937
0.0609845
0.0660406
0.0696616
0.0714758
0.0707365
0.0674112
0.0617691
0.0540038
0.044627
0.034328
-0.0199468
-0.0257491
-0.0311331
-0.0353585
-0.0381059
-0.0389491
-0.0378164
-0.0347048
-0.0299284
-0.023668
-0.0161638
-0.00768363
0.00149423
0.0110989
0.0208725
0.0305717
0.0399638
0.048823
0.0569262
0.0640439
0.0699434
0.0743977
0.0771972
0.0781681
0.0771915
0.0738351
0.0683083
0.0609487
0.0520791
0.0421995
0.0318538
-0.0159876
-0.0206709
-0.0251165
-0.0286422
-0.0310024
-0.0318294
-0.0310091
-0.028527
-0.0245896
-0.0193177
-0.0128947
-0.0055444
0.00248222
0.0109218
0.0195081
0.027979
0.036081
0.043574
0.0502356
0.0558601
0.060264
0.0632917
0.0648247
0.0647899
0.0631661
0.059732
0.0546662
0.0482431
0.0408189
0.0328063
0.0245484
0.0110612
0.011733
0.0100307
0.00530703
-0.0026101
-0.0138664
-0.0278482
-0.0435668
-0.0597012
-0.0748785
-0.0876437
-0.0965892
-0.10048
-0.0983765
-0.089723
-0.0744153
-0.0528318
-0.0258317
0.00528574
0.0388434
0.0728912
0.105339
0.134123
0.157367
0.173562
0.18068
0.178307
0.166754
0.147773
0.122897
0.0951936
0.0312412
0.036588
0.0380436
0.0341575
0.0244457
0.00852176
-0.0128531
-0.0382194
-0.0653143
-0.0919194
-0.115642
-0.134131
-0.145284