# vtk DataFile Version 2.0
Func
ASCII
DATASET RECTILINEAR_GRID
DIMENSIONS 31 31 31
X_COORDINATES 31 double
-9.67742
-9.03226
-8.3871
-7.74194
-7.09677
-6.45161
-5.80645
-5.16129
-4.51613
-3.87097
-3.22581
-2.58065
-1.93548
-1.29032
-0.645161
0
0.645161
1.29032
1.93548
2.58065
3.22581
3.87097
4.51613
5.16129
5.80645
6.45161
7.09677
7.74194
8.3871
9.03226
9.67742
Y_COORDINATES 31 double
-9.67742
-9.03226
-8.3871
-7.74194
-7.09677
-6.45161
-5.80645
-5.16129
-4.51613
-3.87097
-3.22581
-2.58065
-1.93548
-1.29032
-0.645161
0
0.645161
1.29032
1.93548
2.58065
3.22581
3.87097
4.51613
5.16129
5.80645
6.45161
7.09677
7.74194
8.3871
9.03226
9.67742
Z_COORDINATES 31 double
-9.67742
-9.03226
-8.3871
-7.74194
-7.09677
-6.45161
-5.80645
-5.16129
-4.51613
-3.87097
-3.22581
-2.58065
-1.93548
-1.29032
-0.645161
0
0.645161
1.29032
1.93548
2.58065
3.22581
3.87097
4.51613
5.16129
5.80645
6.45161
7.09677
7.74194
8.3871
9.03226
9.67742
POINT_DATA 29791
SCALARS data double 1
LOOKUP_TABLE default
0.0879695
0.113834
0.137771
0.156792
0.169796
0.175182
0.172972
0.163678
0.149081
0.130384
0.108971
0.0862327
0.0634525
0.0416964
0.0217606
0.00415665
-0.0108629
-0.0232656
-0.0331824
-0.0408391
-0.0464932
-0.0503812
-0.0526904
-0.0535431
-0.0530189
-0.0509455
-0.0473644
-0.0423487
-0.0362984
-0.0294232
-0.0225533
0.132587
0.171554
0.207185
0.235399
0.254414
0.262075
0.25839
0.244026
0.22183
0.193681
0.161708
0.128036
0.0946042
0.0630008
0.0343845
0.00946084
-0.0114718
-0.028457
-0.0417864
-0.0518903
-0.0592359
-0.0642426
-0.0672338
-0.0684147
-0.0678963
-0.0654089
-0.0610232
-0.0547855
-0.0471441
-0.0384183
-0.0294229
0.16773
0.216814
0.26145
0.296619
0.320037
0.329213
0.323921
0.305163
0.276633
0.240787
0.200394
0.158211
0.116738
0.0780132
0.0434981
0.0140514
-0.0100152
-0.0288516
-0.0429464
-0.0529826
-0.0597006
-0.063783
-0.0657798
-0.0660723
-0.064884
-0.0620183
-0.0575312
-0.0515086
-0.0442754
-0.0361075
-0.0275901
0.184755
0.238682
0.287514
0.325664
0.35065
0.359637
0.352556
0.330591
0.29792
0.257385
0.212189
0.165512
0.120239
0.0787173
0.042617
0.0128935
-0.010159
-0.0268155
-0.0377831
-0.0440373
-0.046659
-0.0466913
-0.0450323
-0.042373
-0.0391772
-0.0355583
-0.0316435
-0.0274344
-0.023035
-0.0185019
-0.0138724
0.181838
0.234493
0.28183
0.318253
0.341311
0.3482
0.338939
0.314836
0.280178
0.237978
0.191629
0.14451
0.0997021
0.0597156
0.0263411
0.000586133
-0.0172855
-0.0276736
-0.0315077
-0.0300817
-0.0248773
-0.0173955
-0.00901354
-0.00088281
0.0061415
0.0113913
0.0145958
0.0157983
0.0153033
0.013414
0.0109151
0.162723
0.209064
0.250236
0.280972
0.29906
0.301948
0.289777
0.263934
0.228514
0.186537
0.141412
0.0965552
0.0551021
0.0196298
-0.00801053
-0.0267816
-0.0364505
-0.0375333
-0.0311784
-0.0190142
-0.00296754
0.0149254
0.032705
0.0486369
0.0613493
0.0694329
0.0723945
0.070302
0.0639662
0.0541514
0.0426247
0.132512
0.169109
0.200827
0.223024
0.23387
0.231218
0.215362
0.187731
0.152042
0.111215
0.0685604
0.0274202
-0.00910991
-0.0384569
-0.0587529
-0.0689496
-0.0688453
-0.0590615
-0.040952
-0.0164714
0.0120047
0.0418853
0.0705928
0.0957628
0.115452
0.127442
0.130969
0.126092
0.114156
0.0964083
0.0756582
0.0987734
0.124477
0.145588
0.158195
0.160882
0.151978
0.131933
0.102211
0.0660913
0.0263674
-0.0137936
-0.0511702
-0.0827516
-0.106007
-0.119082
-0.120934
-0.111394
-0.0911765
-0.0618125
-0.0255405
0.0148688
0.05633
0.0957094
0.13007
0.156942
0.173385
0.178365
0.171902
0.155809
0.131752
0.103423
0.0676421
0.0832531
0.0944533
0.0980489
0.0930045
0.078114
0.053976
0.0220843
-0.0146667
-0.0536107
-0.0917286
-0.12594
-0.153351
-0.171518
-0.17864
-0.173718
-0.156636
-0.12819
-0.0900438
-0.0446367
0.00498953
0.0554126
0.103119
0.144781
0.177567
0.198066
0.205039
0.198457
0.180451
0.152961
0.120235
0.0433957
0.0510983
0.0544418
0.0508528
0.0395982
0.0198803
-0.00757093
-0.041226
-0.0784705
-0.116742
-0.153168
-0.184831
-0.209003
-0.22339
-0.226329
-0.21693
-0.195175
-0.161949
-0.118995
-0.0688325
-0.014589
0.040221
0.0919883
0.13729
0.173212
0.196264
0.205141
0.199782
0.182432
0.155102
0.12215
0.0272897
0.0297162
0.0277479
0.01931
0.00389583
-0.0189571
-0.048392
-0.0828342
-0.119834
-0.15692
-0.191381
-0.220511
-0.24183
-0.253308
-0.253535
-0.24185
-0.218412
-0.184215
-0.141036
-0.0913398
-0.0381155
0.015331
0.0656484
0.109695
0.144826
0.167955
0.177906
0.174642
0.160299
0.136733
0.107925
0.0177648
0.0170854
0.0119722
0.000750097
-0.0168985
-0.0411497
-0.0710081
-0.104836
-0.140263
-0.17492
-0.206296
-0.231982
-0.249869
-0.258341
-0.256404
-0.243776
-0.220904
-0.188946
-0.149682
-0.105396
-0.0587211
-0.0124474
0.0306963
0.0682424
0.0981928
0.118349
0.127893
0.126902
0.117206
0.100308
0.0793684
0.0116561
0.00903439
0.00202033
-0.0107172
-0.0292914
-0.0536007
-0.0824774
-0.11419
-0.146413
-0.176899
-0.203404
-0.223916
-0.236839
-0.241139
-0.236417
-0.222935
-0.201563
-0.173697
-0.141121
-0.105858
-0.0700098
-0.0356035
-0.00443658
0.0220341
0.042788
0.0569165
0.0641814
0.0648829
0.0604214
0.0518108
0.0410769
0.0058523
0.0014255
-0.00722977
-0.0211212
-0.0401015
-0.0637676
-0.0907293
-0.119119
-0.146654
-0.171232
-0.190928
-0.20422
-0.210144
-0.208389
-0.199311
-0.183861
-0.163463
-0.139836
-0.114811
-0.0901273
-0.0672762
-0.0473783
-0.0311158
-0.0187217
-0.0100212
-0.00439224
-0.0013212
-0.00017065
-3.29859e-06
-0.000329998
-0.000390856
-0.00117533
-0.00782119
-0.0184341
-0.0337158
-0.0531978
-0.076146
-0.100896
-0.125396
-0.147403
-0.164957
-0.176466
-0.18093
-0.178071
-0.168378
-0.15304
-0.133795
-0.112706
-0.0919087
-0.0733473
-0.0585329
-0.0483742
-0.0430917
-0.0422324
-0.0447655
-0.0492629
-0.0535448
-0.0562561
-0.0563317
-0.0532272
-0.0469107
-0.0378123
-0.00863396
-0.0177369
-0.0305399
-0.0474954
-0.0677912
-0.0903646
-0.113242
-0.134136
-0.15081
-0.161393
-0.164568
-0.1598
-0.147447
-0.128754
-0.105727
-0.0808882
-0.0569749
-0.0365943
-0.0218964
-0.014282
-0.0142205
-0.0211892
-0.0337585
-0.0497813
-0.0666975
-0.0809658
-0.0904055
-0.093476
-0.0898699
-0.0798547
-0.0647877
-0.0137113
-0.0246854
-0.0392219
-0.0576524
-0.0788712
-0.10155
-0.123403
-0.141866
-0.15461
-0.159744
-0.156084
-0.143398
-0.122504
-0.0952412
-0.0642829
-0.0328361
-0.00425886
0.0183519
0.0325515
0.036886
0.0310935
0.0161559
-0.00583335
-0.0319247
-0.0587086
-0.0816697
-0.0979241
-0.105464
-0.104014
-0.0939247
-0.0770878
-0.0127648
-0.0239163
-0.0387569
-0.0577072
-0.0795014
-0.102677
-0.124672
-0.142623
-0.153943
-0.156563
-0.149216
-0.131717
-0.105065
-0.0714116
-0.0338479
0.0039398
0.0381001
0.0650829
0.0820813
0.0874112
0.0807405
0.0631501
0.0369864
0.00557673
-0.0272154
-0.0564071
-0.0786221
-0.0914545
-0.094448
-0.0878109
-0.0735225
-0.00287847
-0.0116047
-0.0245
-0.042345
-0.0639095
-0.0877819
-0.111198
-0.130989
-0.144106
-0.148118
-0.141425
-0.123577
-0.0954181
-0.0590634
-0.0176975
0.024782
0.0642193
0.0966976
0.119017
0.129108
0.126297
0.111394
0.0865652
0.055057
0.0207499
-0.0114388
-0.0379041
-0.0559595
-0.0647978
-0.0642938
-0.0560965
0.0168525
0.0134666
0.00507098
-0.00975957
-0.0300463
-0.0546331
-0.0806473
-0.10463
-0.122874
-0.132418
-0.131089
-0.117875
-0.0931246
-0.0585694
-0.0171545
0.0272997
0.07055
0.108436
0.137378
0.154822
0.159536
0.15175
0.133071
0.106254
0.074796
0.0430842
0.0146808
-0.00759568
-0.02249
-0.0294258
-0.029403
0.0447969
0.0492234
0.0475257
0.0373977
0.0193805
-0.00580308
-0.0352711
-0.0653123
-0.0914242
-0.110005
-0.118131
-0.114007
-0.0972196
-0.0688337
-0.0312739
0.0119713
0.0567791
0.0988864
0.134396
0.160237
0.174504
0.176649
0.167462
0.148916
0.123825
0.0957245
0.0678995
0.0431477
0.0231795
0.00904884
0.000577805
0.0771484
0.090778
0.0970624
0.0926847
0.0776345
0.0520867
0.0188431
-0.0181917
-0.0536878
-0.0833808
-0.103536
-0.111469
-0.105869
-0.0869701
-0.0564969
-0.0174262
0.0264068
0.0707761
0.111566
0.145241
0.169223
0.182128
0.183837
0.175402
0.158806
0.13659
0.1116
0.0864809
0.06332
0.0435861
0.0279387
0.108978
0.131802
0.146165
0.147753
0.135983
0.11045
0.0738086
0.0300734
-0.0146949
-0.0556516
-0.0883189
-0.10917
-0.11601
-0.108224
-0.086783
-0.0540689
-0.0135222
0.0307915
0.0746666
0.114228
0.146336
0.168866
0.180847
0.182449
0.174821
0.159553
0.138979
0.115493
0.091422
0.0685186
0.0481553
0.13547
0.166131
0.187526
0.19451
0.185999
0.161064
0.122157
0.0733011
0.0210686
-0.0292981
-0.0727714
-0.105166
-0.123562
-0.126614
-0.114609
-0.0893426
-0.0538153
-0.0118334
0.0324514
0.0750052
0.112325
0.141755
0.16167
0.171526
0.17177
0.163223
0.147718
0.127347
0.104509
0.081074
0.0589066
0.152943
0.189068
0.215594
0.226837
0.221349
0.197798
0.158402
0.107067
0.0505655
-0.00571831
-0.0564922
-0.097199
-0.124462
-0.136422
-0.132838
-0.115004
-0.0854835
-0.0477479
-0.00574901
0.0365263
0.0754642
0.108149
0.132578
0.147747
0.153617
0.150491
0.139774
0.123251
0.103226
0.0815228
0.0602335
0.159528
0.198229
0.227541
0.241606
0.238788
0.217506
0.179722
0.129099
0.0722554
0.0144314
-0.0391408
-0.0838643
-0.116217
-0.134092
-0.136923
-0.125618
-0.102339
-0.0701695
-0.0327307
0.0062384
0.0432648
0.0754565
0.100723
0.117873
0.126612
0.126988
0.120083
0.107393
0.0909968
0.0725368
0.0540804
0.154484
0.192686
0.222244
0.237549
0.236948
0.218786
0.184751
0.138127
0.0850166
0.0302295
-0.0213892
-0.0655349
-0.09885
-0.119246
-0.126021
-0.119821
-0.102437
-0.0765258
-0.0452574
-0.0119467
0.0202952
0.0488466
0.071777
0.0879422
0.0969901
0.0989145
0.0945722
0.085199
0.0725555
0.0580155
0.0434267
0.139018
0.17387
0.20132
0.216325
0.217377
0.202902
0.174298
0.134359
0.088365
0.0404549
-0.0051819
-0.0448038
-0.075469
-0.0953155
-0.103665
-0.100989
-0.0887395
-0.0691109
-0.0447393
-0.0183884
0.00734702
0.0302829
0.0488161
0.0620022
0.0695588
0.0715384
0.0686394
0.0618626
0.0526086
0.0419452
0.0313766
0.11445
0.143387
0.166513
0.179678
0.181623
0.171049
0.148987
0.117651
0.0812588
0.0430898
0.0064702
-0.0256242
-0.0508488
-0.0677129
-0.0756604
-0.0750424
-0.0669793
-0.0531704
-0.0356565
-0.0165693
0.00210229
0.0187006
0.0320289
0.0414073
0.0466695
0.0479458
0.0457996
0.0410053
0.034596
0.0273364
0.0203294
0.0838362
0.105212
0.122555
0.132741
0.134871
0.127867
0.112596
0.0905907
0.0648665
0.0377559
0.0116289
-0.0113978
-0.0296587
-0.0420997
-0.0483312
-0.0486064
-0.0437203
-0.0348713
-0.0234906
-0.0110621
0.00104368
0.0117016
0.02012
0.0258759
0.028906
0.0293786
0.0277191
0.0244783
0.0203505
0.0158292
0.0116383
0.0523165
0.0656692
0.0767418
0.0833895
0.085116
0.0811444
0.0720429
0.0588133
0.0432639
0.0268164
0.0109177
-0.00314376
-0.0143562
-0.0220844
-0.0260995
-0.0265624
-0.0239614
-0.0190261
-0.0126211
-0.00563577
0.00111723
0.00698168
0.0115089
0.0144766
0.0158793
0.0158635
0.0147062
0.0127442
0.0103856
0.00791033
0.00572485
0.120265
0.155399
0.187236
0.212254
0.228804
0.234952
0.230871
0.217249
0.196779
0.171239
0.142594
0.112755
0.0834132
0.0558923
0.0310898
0.00947489
-0.00884841
-0.024059
-0.0365136
-0.0466297
-0.0547854
-0.0612422
-0.0661152
-0.0693692
-0.0708773
-0.0700936
-0.0668784
-0.0611926
-0.0535065
-0.0441031
-0.0342874
0.179415
0.231755
0.278735
0.315387
0.339231
0.347838
0.341383
0.320643
0.289909
0.251908
0.209629
0.165954
0.123407
0.0839386
0.0488328
0.018704
-0.00639875
-0.0268616
-0.0433383
-0.0565672
-0.0672135
-0.0757493
-0.0823999
-0.0871392
-0.0897673
-0.089442
-0.085994
-0.0792935
-0.0698091
-0.0579363
-0.045102
0.226009
0.291587
0.350195
0.395671
0.42487
0.435078
0.426147
0.399285
0.360011
0.311864
0.258705
0.204255
0.151758
0.103708
0.0617234
0.0265371
-0.00187229
-0.0241133
-0.0411656
-0.054143
-0.0640833
-0.0717865
-0.077729
-0.082046
-0.0846027
-0.0845552
-0.0816127
-0.0756745
-0.0670118
-0.0559358
-0.0436913
0.248743
0.320654
0.384679
0.433956
0.465028
0.474747
0.463228
0.431907
0.386995
0.332574
0.273094
0.212852
0.155597
0.104216
0.0605785
0.0255102
-0.00107329
-0.0199861
-0.0325329
-0.0402427
-0.0446204
-0.0469464
-0.0481488
-0.0487523
-0.0489139
-0.0481901
-0.046314
-0.0430243
-0.0383343
-0.0322345
-0.025328
0.244453
0.31456
0.376466
0.423338
0.451747
0.458572
0.444048
0.409789
0.362139
0.305409
0.244309
0.18341
0.126735
0.0774069
0.0374689
0.00783099
-0.0116211
-0.021864
-0.0245028
-0.0215051
-0.0149326
-0.00670606
0.00157229
0.00872636
0.0140412
0.0171351
0.0181288
0.0173614
0.0153109
0.0125109
0.00944007
0.218501
0.280158
0.333802
0.373089
0.394898
0.396349
0.377858
0.341164
0.292306
0.235597
0.175775
0.117482
0.0648544
0.0211531
-0.0114398
-0.0319164
-0.0403812
-0.0379294
-0.026443
-0.0083473
0.0136633
0.0368912
0.0588736
0.0775618
0.0914551
0.0990105
0.100067
0.0950021
0.0848995
0.0709652
0.0550458
0.177556
0.226109
0.267086
0.294978
0.307156
0.301169
0.277634
0.238392
0.188894
0.133313
0.0762638
0.0223234
-0.0243699
-0.0604855
-0.0837348
-0.0930088
-0.0883779
-0.0710231
-0.0430775
-0.00741752
0.032607
0.0734654
0.111747
0.144422
0.169086
0.182881
0.185271
0.176615
0.158649
0.133296
0.103908
0.131979
0.165895
0.192678
0.207753
0.209044
0.194612
0.165279
0.122982
0.0725196
0.0178853
-0.0364743
-0.0860997
-0.126897
-0.155508
-0.169567
-0.167877
-0.150476
-0.118612
-0.0746386
-0.0218377
0.0358416
0.0940963
0.148629
0.195482
0.231389
0.252277
0.257205
0.246474
0.22241
0.187574
0.146664
0.0903238
0.110756
0.124354
0.127413
0.118371
0.095809
0.0607364
0.0151876
-0.0366042
-0.0908025
-0.143127
-0.189252
-0.22517
-0.24755
-0.254013
-0.243336
-0.215556
-0.171996
-0.115181
-0.0486984
0.023061
0.0952264
0.16285
0.221294
0.266653
0.294004
0.302069
0.291072
0.263777
0.223184
0.174927
0.0585167
0.0685249
0.0718033
0.0653483
0.0480162
0.0188623
-0.0209403
-0.0692552
-0.122232
-0.176147
-0.22687
-0.270238
-0.302396
-0.320146
-0.321219
-0.304483
-0.270067
-0.219391
-0.155102
-0.0809394
-0.00148597
0.0781617
0.152807
0.217559
0.268281
0.299787
0.310639
0.301007
0.273868
0.23237
0.18249
0.0382661
0.041525
0.0380146
0.0252445
0.00239184
-0.0310742
-0.0738238
-0.123607
-0.176762
-0.229645
-0.278292
-0.31877
-0.347502
-0.361594
-0.359081
-0.33911
-0.302039
-0.249446
-0.184051
-0.109567
-0.0304524
0.0484017
0.122066
0.185949
0.236211
0.268143
0.280403
0.273187
0.249425
0.212087
0.166809
0.0272892
0.0268127
0.0194951
0.00322358
-0.0225512
-0.057985
-0.101568
-0.15091
-0.202398
-0.25247
-0.297384
-0.333558
-0.357881
-0.367994
-0.362488
-0.341026
-0.304381
-0.254383
-0.193793
-0.126125
-0.0553967
0.0141576
0.0784186
0.133683
0.176974
0.204816
0.216273
0.211688
0.193707
0.164826
0.12969
0.0210127
0.018386
0.00892906
-0.00914742
-0.0360984
-0.0717042
-0.114216
-0.161058
-0.208602
-0.253401
-0.29202
-0.321385
-0.33906
-0.343477
-0.334054
-0.311229
-0.27639
-0.231738
-0.180085
-0.124621
-0.0686633
-0.015413
0.0322875
0.0721342
0.102516
0.121822
0.129834
0.127188
0.116088
0.098335
0.0771052
0.0149234
0.0102711
-0.00105764
-0.0205149
-0.0479892
-0.0828563
-0.123042
-0.165725
-0.207259
-0.244345
-0.273942
-0.293616
-0.30179
-0.297902
-0.28243
-0.256805
-0.223221
-0.184376
-0.143184
-0.102468
-0.0647103
-0.0318542
-0.00517376
0.0147574
0.0280297
0.0352886
0.037279
0.0350816
0.030401
0.0242652
0.0181507
0.00674702
-0.000600826
-0.0143573
-0.0356098
-0.0638052
-0.0978871
-0.135372
-0.173117
-0.207478
-0.235303
-0.253972
-0.261751
-0.258004
-0.243285
-0.219255
-0.188472
-0.154059
-0.119327
-0.0873771
-0.0607282
-0.0410485
-0.0290068
-0.0242606
-0.0255755
-0.0310618
-0.0377574
-0.0438141
-0.0475846
-0.0478016
-0.0441366
-0.0367518
-0.00249485
-0.0129807
-0.0296132
-0.0531423
-0.0825533
-0.116371
-0.151648
-0.184859
-0.212327
-0.230987
-0.238571
-0.233972
-0.217427
-0.190552
-0.156158
-0.117922
-0.0799291
-0.0461713
-0.0200501
-0.00392932
0.00115072
-0.00441255
-0.0188726
-0.0393884
-0.0624388
-0.0830302
-0.0982121
-0.105705
-0.104515
-0.0948001
-0.0780285
-0.0089134
-0.021843
-0.0408413
-0.066457
-0.0972936
-0.131545
-0.165797
-0.196105
-0.218639
-0.230281
-0.228927
-0.213872
-0.185988
-0.147711
-0.102793
-0.0558674
-0.0118947
0.0244464
0.0493456
0.0603758
0.0568074
0.0397079
0.0117862
-0.0229588
-0.0597838
-0.0922421
-0.116429
-0.129444
-0.130332
-0.119442
-0.0990104
-0.0074391
-0.0205854
-0.0400855
-0.0665487
-0.0983888
-0.133634
-0.16847
-0.198528
-0.219607
-0.228327
-0.222456
-0.20134
-0.166091
-0.119569
-0.0660929
-0.0109552
0.0402075
0.0820981
0.110415
0.122429
0.11733
0.0963459
0.0625572
0.0205072
-0.0244147
-0.0650726
-0.0968801
-0.116401
-0.122486
-0.115339
-0.0973442
0.00598208
-0.00390126
-0.0209022
-0.0460491
-0.0778407
-0.114367
-0.151532
-0.184573
-0.208641
-0.21985
-0.215497
-0.194551
-0.157887
-0.108294
-0.0501985
0.0108432
0.0687985
0.117886
0.153279
0.171731
0.171969
0.154849
0.123198
0.0814392
0.0349709
-0.0091852
-0.0461104
-0.0719921
-0.0852856
-0.085764
-0.0753722
0.0325985
0.0298818
0.0188015
-0.00247448
-0.0328283
-0.0706559
-0.111731
-0.150958
-0.182566
-0.20194
-0.20558
-0.191667
-0.16037
-0.113916
-0.0563622
0.00688051
0.0696977
0.126004
0.170476
0.199203
0.210143
0.203334
0.180807
0.146267
0.104541
0.0618384
0.023044
-0.00785375
-0.0288014
-0.0389545
-0.0393659
0.0701527
0.0778938
0.0756699
0.0605242
0.0329385
-0.00600129
-0.0520931
-0.0999892
-0.142807
-0.175061
-0.19222
-0.191374
-0.17162
-0.134232
-0.0825051
-0.0213461
0.0433419
0.105371
0.159003
0.199627
0.224262
0.231844
0.223238
0.201014
0.168998
0.132112
0.0948849
0.0612704
0.0338402
0.0141128
0.00216965
0.113429
0.133448
0.141783
0.134178
0.11033
0.0706693
0.0192425
-0.0384499
-0.0943774
-0.142161
-0.176168
-0.192262
-0.188292
-0.164358
-0.122751
-0.0676285
-0.00445237
0.0606796
0.121756
0.173535
0.212099
0.23521
0.242431
0.23501
0.215563
0.187529
0.154852
0.121266
0.0897716
0.0624844
0.040633
0.155749
0.187987
0.207003
0.207267
0.187668
0.147943
0.0918864
0.0250375
-0.0435721
-0.106798
-0.158012
-0.191931
-0.205192
-0.19671
-0.167715
-0.121506
-0.062965
0.00206821
0.0674872
0.127599
0.177713
0.214555
0.236488
0.2435
0.237015
0.219063
0.1929
0.161907
0.129342
0.0977436
0.069295
0.190673
0.233286
0.261612
0.269072
0.253858
0.215069
0.156185
0.0826508
0.00417829
-0.0715869
-0.137302
-0.186813
-0.21578
-0.22212
-0.206109
-0.170224
-0.118708
-0.0570127
0.00886201
0.0730304
0.130319
0.17673
0.209717
0.228274
0.232834
0.224317
0.205294
0.178721
0.147914
0.115596
0.0845757
0.213366
0.263194
0.298364
0.31164
0.300716
0.264187
0.205184
0.128911
0.0453062
-0.0378464
-0.112898
-0.173234
-0.213926
-0.232212
-0.227652
-0.202025
-0.158954
-0.103403
-0.0410596
0.0222927
0.0813638
0.131829
0.170648
0.196198
0.208247
0.206996
0.194438
0.173086
0.146112
0.116183
0.0863515
0.221417
0.274635
0.313615
0.330946
0.324069
0.291258
0.235271
0.160919
0.0778639
-0.00637402
-0.0842977
-0.149303
-0.196318
-0.222283
-0.226331
-0.209722
-0.175513
-0.128109
-0.0727029
-0.014689
0.0408894
0.0897944
0.128914
0.156412
0.171738
0.174778
0.167083
0.150757
0.12866
0.103204
0.0773278
0.213896
0.266412
0.305899
0.325296
0.322042
0.294294
0.244413
0.176662
0.0999157
0.0210302
-0.0531016
-0.116349
-0.163927
-0.192851
-0.202102
-0.192589
-0.166857
-0.128694
-0.0826332
-0.0334308
0.0144312
0.0571528
0.0919079
0.116985
0.131804
0.136237
0.131525
0.119404
0.102307
0.0822543
0.0618071
0.192547
0.240612
0.277524
0.296992
0.296678
0.274791
0.233298
0.175788
0.109923
0.0415786
-0.0233166
-0.0794676
-0.122718
-0.150439
-0.161676
-0.157115
-0.138831
-0.109955
-0.0742518
-0.0356684
0.00208265
0.0358687
0.0633797
0.0832413
0.0950216
0.0987403
0.0954246
0.0864812
0.0738579
0.0591304
0.0443246
0.158825
0.198967
0.230295
0.247693
0.249217
0.233397
0.201675
0.15688
0.105131
0.0510737
-0.00059998
-0.0456978
-0.0809286
-0.10421
-0.114783
-0.113175
-0.101004
-0.0807028
-0.0551859
-0.0274896
-0.000443369
0.0235984
0.0429391
0.0566193
0.0644102
0.0664944
0.0637134
0.0571595
0.0482838
0.0382171
0.0283999
0.117064
0.147016
0.17074
0.184449
0.186729
0.176303
0.154411
0.123008
0.0864846
0.0481592
0.0113805
-0.0208675
-0.04625
-0.0633043
-0.0715124
-0.0712722
-0.0637488
-0.0506748
-0.0341054
-0.0161603
0.001212
0.0164222
0.0283639
0.0364608
0.0406519
0.0412054
0.038768
0.0341284
0.0282746
0.0219426
0.0160448
0.0740227
0.0930516
0.108392
0.117535
0.119616
0.113642
0.100459
0.0814043
0.0591325
0.0356935
0.0131552
-0.00664594
-0.0222807
-0.0328664
-0.0381072
-0.0382702
-0.0340907
-0.0266458
-0.0171987
-0.00703764
0.00267052
0.0109948
0.0173119
0.0213314
0.0230777
0.0227982
0.0209277
0.0179601
0.0144906
0.010947
0.00781687
0.129781
0.166951
0.200026
0.225302
0.241105
0.245714
0.239282
0.222971
0.199989
0.17248
0.142691
0.112696
0.0841917
0.0583542
0.0357936
0.0165928
0.000426544
-0.0132964
-0.0252686
-0.0361166
-0.0462644
-0.0558463
-0.0646918
-0.072357
-0.0782454
-0.0811942
-0.0805972
-0.0761824
-0.0684118
-0.057598
-0.0455714
0.193151
0.248337
0.297013
0.333926
0.356565
0.36289
0.353
0.32837
0.294062
0.253342
0.209609
0.165975
0.12496
0.0882783
0.0567735
0.0304719
0.00877196
-0.00933418
-0.025006
-0.0392933
-0.052928
-0.0661877
-0.0788649
-0.090316
-0.0996298
-0.105018
-0.105643
-0.101019
-0.0915682
-0.0777474
-0.0616899
0.24333
0.31241
0.373097
0.418926
0.446655
0.454067
0.440888
0.409222
0.365551
0.314089
0.259213
0.204929
0.154474
0.110049
0.0727171
0.0424736
0.0184791
-0.000657747
-0.0165552
-0.0307236
-0.0442911
-0.0578221
-0.0712588
-0.0839695
-0.094934
-0.102134
-0.104432
-0.101294
-0.0929093
-0.0796728
-0.0636556
0.267465
0.343131
0.409378
0.458974
0.488379
0.494968
0.478739
0.442114
0.392356
0.334293
0.272949
0.212941
0.158023
0.110774
0.0724626
0.0431119
0.0217433
0.00667927
-0.00409728
-0.0125703
-0.0203721
-0.0285574
-0.0375054
-0.0469355
-0.0560653
-0.0632164
-0.0672282
-0.0672827
-0.063329
-0.0554016
-0.0449695
0.262123
0.335688
0.399516
0.446434
0.472932
0.476399
0.456962
0.417214
0.364535
0.30398
0.240849
0.180056
0.125663
0.0805222
0.0461209
0.0226042
0.00899056
0.00345096
0.00365732
0.00715129
0.0116826
0.0154743
0.0173763
0.016915
0.0142181
0.00999875
0.00519543
0.000778649
-0.00271549
-0.00472131
-0.00550376
0.233074
0.297417
0.352264
0.391019
0.41049
0.408253
0.38464
0.342301
0.288209
0.227388
0.165156
0.106528
0.055742
0.0158861
-0.0112971
-0.0254413
-0.027409
-0.019071
-0.00300377
0.0178438
0.0404899
0.0622219
0.0808224
0.0947116
0.102998
0.104913
0.100932
0.0921093
0.079593
0.0647452
0.0489242
0.187578
0.237613
0.278701
0.305164
0.314324
0.304104
0.275081
0.229896
0.174796
0.114612
0.0545277
-0.00046855
-0.0460407
-0.0788931
-0.097005
-0.0997297
-0.0877353
-0.0628649
-0.0279012
0.0137118
0.0581987
0.101787
0.141017
0.172993
0.195583
0.206248
0.204836
0.192405
0.170783
0.142216
0.109937
0.137436
0.171579
0.197309
0.209946
0.207384
0.187974
0.152545
0.103727
0.0469873
-0.0130563
-0.0713821
-0.123056
-0.163668
-0.18973
-0.19895
-0.190401
-0.164546
-0.123183
-0.0692812
-0.00675436
0.0598527
0.12573
0.186191
0.237034
0.274885
0.295483
0.298008
0.283449
0.254293
0.213611
0.166402
0.0925465
0.11227
0.123912
0.123688
0.110007
0.0816621
0.0397259
-0.0131637
-0.0721741
-0.132849
-0.190295
-0.239626
-0.276389
-0.296958
-0.298848
-0.280926
-0.243517
-0.188403
-0.118718
-0.0387636
0.0462948
0.130815
0.209133
0.276003
0.327066
0.356736
0.363628
0.348625
0.314752
0.265697
0.207814
0.0597511
0.0687028
0.0696373
0.0594415
0.0369276
0.00130524
-0.0461407
-0.102718
-0.163972
-0.225523
-0.282561
-0.330267
-0.364219
-0.38079
-0.377466
-0.353087
-0.307977
-0.24398
-0.164372
-0.0736972
0.0225301
0.118225
0.207216
0.283732
0.342921
0.378589
0.389046
0.375072
0.340024
0.287887
0.225685
0.0409027
0.0434093
0.0377499
0.0212526
-0.00697983
-0.0473598
-0.0983963
-0.157288
-0.219688
-0.28123
-0.337185
-0.382877
-0.414074
-0.427372
-0.420496
-0.392521
-0.343985
-0.276909
-0.194687
-0.101917
-0.00409873
0.0927601
0.182618
0.259869
0.319835
0.356647
0.368679
0.356669
0.324059
0.274732
0.215564
0.0330571
0.0326129
0.0237776
0.00416138
-0.0268901
-0.0694276
-0.121722
-0.180797
-0.242218
-0.301618
-0.354409
-0.396206
-0.423206
-0.432533
-0.422489
-0.392711
-0.344212
-0.279333
-0.201577
-0.115401
-0.0258978
0.0615638
0.14176
0.209998
0.262509
0.294721
0.305504
0.295664
0.26848
0.22735
0.178194
0.0304824
0.0288319
0.018633
-0.0022715
-0.0342564
-0.0769911
-0.128431
-0.185345
-0.243132
-0.29745
-0.343964
-0.378775
-0.39878
-0.401966
-0.387566
-0.356117
-0.309381
-0.250176
-0.182134
-0.109409
-0.0363571
0.0327819
0.0942085
0.144811
0.182383
0.204492
0.210908
0.20266
0.182668
0.153554
0.119635
0.0275026
0.0245994
0.0131434
-0.008748
-0.0410713
-0.0830716
-0.132279
-0.185125
-0.236852
-0.283192
-0.320173
-0.344562
-0.354197
-0.348202
-0.327045
-0.292442
-0.247133
-0.194572
-0.138566
-0.0828947
-0.0309818
0.0143757
0.0511992
0.0784039
0.0957907
0.103608
0.102837
0.0948897
0.0822359
0.0665787
0.0502806
0.0211502
0.0159543
0.00233814
-0.0212417
-0.0543009
-0.0956261
-0.142217
-0.190092
-0.234378
-0.270902
-0.296111
-0.307527
-0.304044
-0.286074
-0.255468
-0.215282
-0.169377
-0.121962
-0.0770985
-0.0382334
-0.00784453
0.0127697
0.0235494
0.0255641
0.0207669
0.0122105
0.00224205
-0.0072006
-0.0140727
-0.017545
-0.0172067
0.0124575
0.00416084
-0.0124095
-0.0384545
-0.0729744
-0.114312
-0.158883
-0.202227
-0.239363
-0.266168
-0.279445
-0.277407
-0.259941
-0.228682
-0.186827
-0.138744
-0.089435
-0.0439154
-0.00660425
0.0192383
0.0318892
0.0313302
0.0191882
-0.0015383
-0.0269383
-0.0514751
-0.0714683
-0.0843648
-0.0884082
-0.0834218
-0.0705985
0.00593672
-0.00495171
-0.0241457
-0.05263
-0.0889765
-0.131179
-0.175091
-0.215749
-0.247967
-0.26753
-0.271408
-0.258257
-0.22868
-0.185251
-0.132243
-0.0751297
-0.0199153
0.0276009
0.0625458
0.0816147
0.0834834
0.0689551
0.0408215
0.00347042
-0.0377295
-0.075459
-0.104927
-0.122947
-0.12784
-0.119734
-0.100813
0.00753736
-0.00364901
-0.0235483
-0.0532071
-0.0909901
-0.13472
-0.179801
-0.220779
-0.252049
-0.26909
-0.268718
-0.249631
-0.212688
-0.160925
-0.0992404
-0.0338276
0.0285683
0.0814759
0.119497
0.139018
0.138659
0.119437
0.0845953
0.0391624
-0.0107466
-0.0569735
-0.0939877
-0.118037
-0.127287
-0.121772
-0.103924
0.0220141
0.0142735
-0.00309096
-0.0315827
-0.0696767
-0.115261
-0.163482
-0.208435
-0.24381
-0.264519
-0.26684
-0.249029
-0.211643
-0.157593
-0.0918385
-0.0208144
0.0483492
0.108689
0.15426
0.180894
0.186699
0.172269
0.140539
0.0963619
0.0458143
-0.00310487
-0.0445806
-0.0744409
-0.0904939
-0.0923281
-0.0818959
0.050828
0.0507586
0.0396481
0.0151097
-0.0217843
-0.0692399
-0.122364
-0.174876
-0.219471
-0.250257
-0.262611
-0.253877
-0.223769
-0.174495
-0.110517
-0.0380151
0.0358755
0.103924
0.159674
0.198236
0.216841
0.215118
0.195031
0.160534
0.116956
0.0712702
0.0291196
-0.00510561
-0.0287382
-0.0406746
-0.0418282
0.0913944
0.102519
0.100825
0.0826894
0.0484469
-0.000639309
-0.0598469
-0.122612
-0.180438
-0.226481
-0.254964
-0.261978
-0.245984
-0.208041
-0.151659
-0.082349
-0.00690942
0.0673944
0.133697
0.186333
0.221457
0.237394
0.234697
0.215918
0.185128
0.147695
0.108705
0.0725457
0.0423728
0.0200672
0.00606036
0.137823
0.16202
0.171532
0.161317
0.130814
0.0806193
0.0151219
-0.0589404
-0.131859
-0.195825
-0.243843
-0.27062
-0.273177
-0.25119
-0.206959
-0.145054
-0.0716868
0.00605976
0.0810657
0.146978
0.198873
0.233696
0.250441
0.250055
0.235117
0.209167
0.176489
0.141259
0.107032
0.0763866
0.0511171
0.182728
0.219832
0.240636
0.238721
0.212624
0.16224
0.0915219
0.00725067
-0.0798347
-0.161123
-0.228543
-0.275536
-0.297754
-0.293513
-0.263861
-0.21234
-0.144431
-0.0668598
0.0132018
0.0889226
0.154506
0.205702
0.240093
0.257127
0.257947
0.244391
0.219857
0.188152
0.153055
0.117636
0.0848091
0.219188
0.267157
0.297789
0.303562
0.282245
0.233095
0.159584
0.0683769
-0.0291335
-0.123849
-0.206969
-0.27101
-0.310567
-0.32284
-0.307797
-0.268019
-0.208222
-0.134641
-0.0542733
0.0258782
0.099507
0.161559
0.20859
0.238908
0.252507
0.249922
0.233723
0.207258
0.174318
0.138174
0.102448
0.242207
0.297672
0.335586
0.347772
0.331471
0.285429
0.212641
0.119471
0.0174506
-0.0842618
-0.176619
-0.251712
-0.30355
-0.328626
-0.326132
-0.297867
-0.247833
-0.181672
-0.105977
-0.0275725
0.0471713
0.112898
0.165664
0.203127
0.224563
0.229729
0.220534
0.19984
0.171236
0.137902
0.103686
0.249458
0.308419
0.350532
0.367505
0.35633
0.315422
0.247315
0.157884
0.0582337
-0.0428809
-0.136698
-0.215436
-0.27305
-0.305784
-0.312416
-0.294195
-0.254488
-0.198284
-0.131562
-0.0606302
0.00851643
0.0707263
0.122083
0.160107
0.183806
0.192669
0.188156
0.172667
0.149414
0.121246
0.0917878
0.240051
0.298218
0.341138
0.360975
0.354756
0.320756
0.261072
0.180895
0.0903357
-0.00269994
-0.0902495
-0.165187
-0.221908
-0.256845
-0.268686
-0.258336
-0.228604
-0.183768
-0.129011
-0.0698374
-0.0115004
0.0414708
0.085619
0.11874
0.139925
0.14878
0.146488
0.135034
0.117132
0.0951341
0.0721311
0.215943
0.26938
0.309873
0.330503
0.328577
0.302398
0.253665
0.186733
0.110277
0.0310107
-0.0442892
-0.109545
-0.159965
-0.192481
-0.205935
-0.201035
-0.180091
-0.146633
-0.104939
-0.0595287
-0.0146873
0.0259314
0.0595864
0.084589
0.100323
0.106694
0.10473
0.0960447
0.0828002
0.0667968
0.0504136
0.178427
0.22333
0.258052
0.277034
0.278037
0.25967
0.223126
0.17183
0.112678
0.0509387
-0.00807038
-0.05959
-0.0998813
-0.126567
-0.13877
-0.137073
-0.123294
-0.100179
-0.0710253
-0.0392759
-0.00814534
0.0196822
0.0422621
0.0584809
0.0680522
0.0711718
0.0687365
0.0620036
0.0525792
0.0417283
0.0310884
0.131854
0.165613
0.192183
0.207463
0.209852
0.198119
0.173341
0.137881
0.0966802
0.0534846
0.0120652
-0.0242202
-0.0527524
-0.0718962
-0.0810863
-0.08079
-0.0723372
-0.0576931
-0.0391795
-0.0191822
0.0001151
0.0169422
0.0300792
0.0389084
0.0433932
0.0438887
0.0411225
0.0360178
0.0296631
0.0228654
0.0166197
0.0838283
0.105483
0.122831
0.133186
0.135571
0.128993
0.114221
0.0928617
0.0679132
0.0416944
0.0165316
-0.00551541
-0.0228558
-0.03452
-0.0402059
-0.0402474
-0.0355029
-0.0272087
-0.0168004
-0.0057278
0.00471093
0.0134975
0.0199719
0.0238562
0.0252296
0.024438
0.0220012
0.0185078
0.0146149
0.0107888
0.00752885
0.110261
0.140678
0.166897
0.185621
0.195702
0.195843
0.186753
0.169968
0.148717
0.125219
0.101623
0.0797102
0.0607073
0.0451701
0.0329908
0.0235014
0.0156644
0.00828804
0.000255285
-0.0092585
-0.0206242
-0.0336744
-0.0477253
-0.0616658
-0.074164
-0.083202
-0.0875072
-0.0863117
-0.0800638
-0.0690518
-0.0556265
0.165182
0.210631
0.249469
0.277037
0.291547
0.291466
0.277773
0.252536
0.220822
0.186003
0.151328
0.119475
0.0922645
0.0704929
0.0539406
0.0415268