# vtk DataFile Version 2.0
Func
ASCII
DATASET RECTILINEAR_GRID
DIMENSIONS 31 31 31
X_COORDINATES 31 double
-9.67742
-9.03226
-8.3871
-7.74194
-7.09677
-6.45161
-5.80645
-5.16129
-4.51613
-3.87097
-3.22581
-2.58065
-1.93548
-1.29032
-0.645161
0
0.645161
1.29032
1.93548
2.58065
3.22581
3.87097
4.51613
5.16129
5.80645
6.45161
7.09677
7.74194
8.3871
9.03226
9.67742
Y_COORDINATES 31 double
-9.67742
-9.03226
-8.3871
-7.74194
-7.09677
-6.45161
-5.80645
-5.16129
-4.51613
-3.87097
-3.22581
-2.58065
-1.93548
-1.29032
-0.645161
0
0.645161
1.29032
1.93548
2.58065
3.22581
3.87097
4.51613
5.16129
5.80645
6.45161
7.09677
7.74194
8.3871
9.03226
9.67742
Z_COORDINATES 31 double
-9.67742
-9.03226
-8.3871
-7.74194
-7.09677
-6.45161
-5.80645
-5.16129
-4.51613
-3.87097
-3.22581
-2.58065
-1.93548
-1.29032
-0.645161
0
0.645161
1.29032
1.93548
2.58065
3.22581
3.87097
4.51613
5.16129
5.80645
6.45161
7.09677
7.74194
8.3871
9.03226
9.67742
POINT_DATA 29791
SCALARS data double 1
LOOKUP_TABLE default
0.0457754
0.0592687
0.0710242
0.0798644
0.0850613
0.0858097
0.0820793
0.0741026
0.0629338
0.0493526
0.0342808
0.0186936
0.00354603
-0.010308
-0.0221705
-0.0315383
-0.0381183
-0.0418311
-0.0427986
-0.0413186
-0.037826
-0.0328466
-0.0269477
-0.0206902
-0.0145904
-0.00914097
-0.00463196
-0.00122919
0.00101884
0.00221783
0.00231086
0.0640862
0.0825821
0.0984119
0.109922
0.116049
0.115806
0.109151
0.0963861
0.0791401
0.0586001
0.0361519
0.0132504
-0.0086948
-0.0284352
-0.0449657
-0.0575832
-0.0659049
-0.0698723
-0.0697281
-0.0659757
-0.0593184
-0.0505872
-0.0406646
-0.0304134
-0.0206142
-0.012026
-0.0050683
6.46559e-05
0.00331241
0.00482612
0.00477426
0.075344
0.0964159
0.114035
0.126133
0.13144
0.12893
0.118465
0.100575
0.0773503
0.050359
0.0214121
-0.00760486
-0.0348822
-0.0588325
-0.0782005
-0.0921373
-0.100224
-0.102475
-0.0993025
-0.0914662
-0.0799846
-0.0660393
-0.050869
-0.0356722
-0.0215162
-0.00946581
-6.81203e-05
0.00645739
0.0101263
0.0112178
0.0102054
0.0777224
0.0986697
0.115575
0.126073
0.128855
0.122821
0.107999
0.0851137
0.0565653
0.0242414
-0.00969883
-0.0430268
-0.0736197
-0.099635
-0.11964
-0.132701
-0.138415
-0.13691
-0.128808
-0.115155
-0.0973151
-0.0768516
-0.0553877
-0.0344828
-0.0155088
0.000127277
0.0117511
0.0191206
0.022421
0.0221159
0.0191001
0.0739946
0.0929918
0.10747
0.114979
0.114248
0.104235
0.0850893
0.0577281
0.0247443
-0.0117276
-0.049264
-0.0853763
-0.117705
-0.144216
-0.163348
-0.174115
-0.17615
-0.169706
-0.155616
-0.135216
-0.11022
-0.0825819
-0.0543216
-0.0273745
-0.00343363
0.0157181
0.0292696
0.0369661
0.0392139
0.0366993
0.0307296
0.0692526
0.086143
0.0981753
0.102859
0.0989654
0.0855
0.0627235
0.031703
-0.00484872
-0.0446076
-0.0849415
-0.123149
-0.156668
-0.183295
-0.201343
-0.209764
-0.208203
-0.197007
-0.177188
-0.15034
-0.118502
-0.0839978
-0.0492377
-0.0165332
0.0120944
0.0344693
0.0496243
0.0572798
0.0580818
0.0529428
0.043585
0.0669805
0.0828359
0.0936084
0.096783
0.0911324
0.0756501
0.0506558
0.0172982
-0.0216392
-0.0637065
-0.106121
-0.146013
-0.180652
-0.207671
-0.22525
-0.23225
-0.22828
-0.213724
-0.189704
-0.157995
-0.120893
-0.0810236
-0.0411314
-0.00385992
0.0284696
0.0533153
0.0695495
0.0768487
0.0760742
0.0683272
0.0557153
0.0693069
0.085924
0.0973775
0.101097
0.0957891
0.0803524
0.055089
0.021144
-0.0186663
-0.0618408
-0.105514
-0.146705
-0.18255
-0.210539
-0.228713
-0.235812
-0.231358
-0.215695
-0.189959
-0.156006
-0.116268
-0.0735652
-0.0308659
0.00894561
0.0433203
0.069429
0.0860011
0.0926557
0.0904013
0.0804636
0.0652062
0.0753716
0.0943216
0.108255
0.114526
0.111731
0.0986112
0.0753727
0.0430603
0.00445102
-0.0380108
-0.0814855
-0.122982
-0.159589
-0.188717
-0.208299
-0.216955
-0.214082
-0.199908
-0.175477
-0.142587
-0.103649
-0.0615061
-0.0191834
0.02035
0.0544464
0.0801335
0.0960531
0.101764
0.098322
0.0869851
0.0701779
0.0826733
0.104749
0.12227
0.132538
0.134044
0.125352
0.106501
0.0783395
0.0434831
0.00417423
-0.0369293
-0.076981
-0.113163
-0.142924
-0.164171
-0.175438
-0.175984
-0.165859
-0.145899
-0.117685
-0.0834148
-0.0457361
-0.00751121
0.0284172
0.0594823
0.0827723
0.0969294
0.101463
0.09735
0.0857688
0.0689598
0.0881072
0.113103
0.13438
0.149263
0.156199
0.153597
0.141285
0.119821
0.0914883
0.0581559
0.022108
-0.0141505
-0.0480831
-0.0773338
-0.0999055
-0.114314
-0.119692
-0.115856
-0.103327
-0.0832996
-0.0575496
-0.0282887
0.0020349
0.030945
0.056165
0.0750834
0.0864467
0.0897333
0.0857049
0.0753335
0.0604185
0.0891348
0.115985
0.140308
0.159596
0.172331
0.176845
0.172722
0.160151
0.140894
0.116271
0.0879967
0.058027
0.028419
0.00115965
-0.0219819
-0.0395874
-0.0506849
-0.0548246
-0.0521122
-0.0432064
-0.0292615
-0.0118275
0.00730021
0.0262417
0.0432121
0.056136
0.0639599
0.0661513
0.0631284
0.0555298
0.0444946
0.0844804
0.111598
0.137646
0.160441
0.178604
0.190476
0.195396
0.193128
0.184747
0.170888
0.152531
0.130917
0.107458
0.0836266
0.0608496
0.0404045
0.0233367
0.0103819
0.00191335
-0.0020844
-0.00200333
0.00143419
0.00725915
0.0143568
0.0215824
0.027574
0.0315443
0.032965
0.0318177
0.0283082
0.0227831
0.074186
0.0998161
0.125931
0.150826
0.173338
0.191914
0.205673
0.213941
0.217005
0.214753
0.207353
0.195241
0.179099
0.159801
0.138365
0.115877
0.0934243
0.0720174
0.0525183
0.035583
0.0216252
0.0108042
0.00303726
-0.00196655
-0.00465775
-0.00561677
-0.00534491
-0.00435553
-0.00313113
-0.00193829
-0.0012262
0.0592926
0.081778
0.106191
0.131408
0.156534
0.180212
0.201393
0.219006
0.232558
0.241228
0.244404
0.241743
0.233209
0.21909
0.199987
0.176774
0.150547
0.122541
0.0940418
0.0663006
0.0404518
0.0174466
-0.00199993
-0.0174353
-0.0286813
-0.0356125
-0.0384729
-0.037752
-0.0343358
-0.0289137
-0.0225901
0.0414356
0.0593919
0.0804011
0.103946
0.129419
0.155731
0.181748
0.206107
0.227658
0.245013
0.256933
0.26244
0.26091
0.252138
0.236366
0.214266
0.186901
0.155635
0.122038
0.0877708
0.0544696
0.0236421
-0.00343461
-0.0257838
-0.0427811
-0.0538144
-0.0589399
-0.0586121
-0.0539693
-0.0459771
-0.0361285
0.0225952
0.0350662
0.0512375
0.0711309
0.0944207
0.120328
0.147741
0.175164
0.201004
0.223549
0.241181
0.25253
0.2566
0.252862
0.241306
0.222438
0.197237
0.167072
0.133589
0.0985917
0.0639017
0.0312381
0.00209505
-0.0223458
-0.0412813
-0.0539347
-0.0602681
-0.0606874
-0.0563672
-0.048328
-0.0381124
0.00498802
0.0116282
0.0220533
0.0366797
0.0554267
0.0778363
0.102923
0.129248
0.155057
0.178597
0.198178
0.212335
0.219965
0.220426
0.213592
0.199849
0.180049
0.155426
0.127481
0.0978589
0.0682173
0.040105
0.0148534
-0.00650207
-0.0232728
-0.0348672
-0.041252
-0.0427725
-0.0404105
-0.0349988
-0.0277947
-0.00908347
-0.00783407
-0.00326661
0.00523492
0.0177692
0.0341652
0.0536522
0.0750243
0.0966555
0.117032
0.134688
0.14836
0.157099
0.160362
0.158044
0.150467
0.138327
0.122606
0.104467
0.0851413
0.0658162
0.047544
0.0311677
0.0172783
0.00620032
-0.00194588
-0.00721684
-0.00989321
-0.0105855
-0.00974332
-0.00809041
-0.017606
-0.0204662
-0.0209171
-0.0183485
-0.0125722
-0.00354966
0.00821162
0.0218626
0.0361506
0.0500144
0.062449
0.0726186
0.0799378
0.0841263
0.0852163
0.0835224
0.0795766
0.0740472
0.0676468
0.0610379
0.0547597
0.0491753
0.044451
0.0405626
0.0373288
0.034255
0.031141
0.0277623
0.0239537
0.0197367
0.0150201
-0.0194605
-0.0244885
-0.0282661
-0.030361
-0.0305958
-0.0288306
-0.0253116
-0.0204851
-0.0150779
-0.00959123
-0.00445214
5.07724e-05
0.0038024
0.00687414
0.00950067
0.0120295
0.014851
0.0183235
0.0227008
0.0280662
0.0342977
0.0410614
0.0478439
0.0540077
0.0588696
0.0613628
0.0611337
0.0579936
0.0521702
0.0441079
0.0342707
-0.0150094
-0.0200484
-0.0250047
-0.0297276
-0.0341368
-0.0381037
-0.0416602
-0.0448883
-0.0479555
-0.0508237
-0.0533599
-0.0553228
-0.0563728
-0.0560979
-0.0540629
-0.0498736
-0.0432455
-0.0340669
-0.0224488
-0.00876219
0.00636313
0.0220705
0.0373483
0.0511196
0.0623498
0.0696208
0.0724657
0.0707099
0.0648118
0.0554694
0.0434722
-0.00631004
-0.0095873
-0.0137168
-0.0188447
-0.0250326
-0.0322479
-0.0403828
-0.049257
-0.0585689
-0.0678759
-0.0766303
-0.0842066
-0.0899444
-0.0932017
-0.0934172
-0.0901756
-0.083266
-0.072728
-0.0588784
-0.0423222
-0.0239266
-0.00476665
0.0139619
0.0310429
0.0453491
0.0554506
0.0608542
0.0613898
0.0575263
0.0499808
0.0395478
0.00333451
0.00268492
0.000667666
-0.00309229
-0.00878345
-0.0164998
-0.02607
-0.0371844
-0.0492571
-0.0616522
-0.0736383
-0.0844397
-0.0932938
-0.0995133
-0.102543
-0.102012
-0.0977719
-0.0899212
-0.0788093
-0.0650279
-0.0493737
-0.0327929
-0.0163051
-0.000921937
0.0124351
0.0226893
0.02944
0.0325303
0.0322335
0.0290591
0.0234837
0.0104409
0.0121647
0.012506
0.0109855
0.00736032
0.00144164
-0.00659497
-0.0164337
-0.0274344
-0.0389963
-0.0504583
-0.0611536
-0.0704626
-0.0778611
-0.0829568
-0.0855136
-0.0854617
-0.0828954
-0.0780599
-0.0713284
-0.0631678
-0.0541004
-0.0446632
-0.0353688
-0.026675
-0.0190156
-0.0125794
-0.00747811
-0.00376874
-0.00129992
-0.000152875
0.012581
0.0155084
0.0174895
0.0180833
0.0170974
0.014325
0.00991634
0.00410686
-0.0026216
-0.00989098
-0.0173205
-0.0245682
-0.031361
-0.0375147
-0.0429347
-0.0476065
-0.0515716
-0.0549001
-0.0576619
-0.0598977
-0.0615971
-0.0626898
-0.0630541
-0.062534
-0.0609731
-0.0580233
-0.0535719
-0.0476443
-0.0406587
-0.0328605
-0.0249944
0.0095266
0.0121748
0.0145903
0.0164736
0.0177741
0.0183511
0.0183247
0.0178126
0.0170048
0.0159604
0.014674
0.0130579
0.0109423
0.00809224
0.00424352
-0.000850634
-0.00736639
-0.0153597
-0.0247264
-0.0351726
-0.04621
-0.0571781
-0.0673034
-0.0757698
-0.0818155
-0.0843681
-0.0829932
-0.0776016
-0.0688999
-0.0574587
-0.0445898
0.00301794
0.00424145
0.00595981
0.00807491
0.0107172
0.0138699
0.0176296
0.0220061
0.0268719
0.0319791
0.0369559
0.0413137
0.0444773
0.0458335
0.0447982
0.0408905
0.0338066
0.0234834
0.0101443
-0.00567509
-0.0231369
-0.0411488
-0.0584592
-0.073768
-0.085868
-0.0931909
-0.095043
-0.0912174
-0.0825738
-0.0698576
-0.0547789
-0.00367865
-0.00417812
-0.00367714
-0.00211626
0.000786207
0.00511809
0.0109803
0.0183112
0.026753
0.0358634
0.045046
0.0535729
0.0606348
0.0654071
0.0671308
0.0651985
0.0592334
0.0491562
0.0352284
0.0180738
-0.00134139
-0.021767
-0.0417785
-0.059901
-0.0747665
-0.0846614
-0.0887702
-0.0868461
-0.0797086
-0.068114
-0.0538916
-0.0076894
-0.00941593
-0.0100075
-0.00931983
-0.00702113
-0.00292847
0.00300775
0.0107184
0.0197734
0.0296956
0.0398588
0.0495174
0.0578579
0.0640654
0.0673984
0.0672675
0.0633048
0.0554215
0.0438442
0.0291292
0.0121421
-0.00599601
-0.024008
-0.0405699
-0.0544548
-0.0641648
-0.0689756
-0.0685459
-0.0636
-0.0547405
-0.0436303
-0.00799259
-0.0100073
-0.0111011
-0.0111147
-0.00978029
-0.00690346
-0.00244705
0.00351323
0.0106286
0.0185232
0.0267087
0.0346097
0.0416037
0.0470712
0.0504516
0.0512986
0.0493296
0.044466
0.0368578
0.0268921
0.0151773
0.00250531
-0.0102202
-0.0220593
-0.0321419
-0.0394462
-0.0434007
-0.0437422
-0.040983
-0.0354546
-0.0285045
0.057123
0.0740074
0.0884869
0.0994073
0.10576
0.106672
0.102109
0.0922471
0.0784665
0.0617307
0.0431608
0.0239337
0.00518897
-0.0120652
-0.0270138
-0.0390797
-0.0479323
-0.0534851
-0.0558758
-0.0554302
-0.0526146
-0.0479817
-0.0421185
-0.0355968
-0.0289457
-0.0226359
-0.0169269
-0.012012
-0.00807224
-0.00500027
-0.00324761
0.0775253
0.0999133
0.118725
0.132296
0.139265
0.138696
0.130533
0.114931
0.0940029
0.0691885
0.0421409
0.0145758
-0.0118667
-0.0357531
-0.0559467
-0.0716739
-0.0825307
-0.0884757
-0.0897947
-0.0870451
-0.0809806
-0.0724683
-0.0624107
-0.0516733
-0.041038
-0.0312176
-0.022568
-0.0152939
-0.00964858
-0.0055053
-0.00315176
0.088254
0.112798
0.132785
0.146175
0.151386
0.147545
0.134483
0.11261
0.0845886
0.0523065
0.017901
-0.0164307
-0.0486131
-0.076854
-0.0997656
-0.116446
-0.126487
-0.129965
-0.127386
-0.119616
-0.107773
-0.0931183
-0.0769434
-0.0604725
-0.0447868
-0.0309245
-0.0193251
-0.0102212
-0.00380148
0.000218465
0.00182793
0.0877916
0.111044
0.129008
0.13942
0.140661
0.1318
0.112939
0.0847322
0.0501931
0.0115906
-0.0285305
-0.0675796
-0.103131
-0.133116
-0.155967
-0.170715
-0.177006
-0.175085
-0.165739
-0.150202
-0.130028
-0.106949
-0.0827248
-0.0590136
-0.0372586
-0.0189242
-0.00455941
0.00560131
0.0115551
0.0138491
0.0129452
0.0801637
0.100012
0.113945
0.119714
0.115761
0.101251
0.076484
0.0423723
0.00214197
-0.0416308
-0.086077
-0.128289
-0.165554
-0.195575
-0.216638
-0.227723
-0.228535
-0.2195
-0.20169
-0.176734
-0.146657
-0.113711
-0.0801875
-0.0482479
-0.019764
0.00327183
0.0201668
0.0306851
0.0350958
0.0342715
0.0292073
0.0728829
0.0896492
0.0999893
0.101686
0.0932273
0.0738191
0.0439354
0.00470159
-0.0405113
-0.0888674
-0.13721
-0.182335
-0.221243
-0.251392
-0.270881
-0.278594
-0.274243
-0.258378
-0.232321
-0.198063
-0.158095
-0.115205
-0.0722517
-0.0319453
0.00335757
0.0310619
0.0502745
0.0607312
0.0630086
0.0583227
0.0482478
0.0706227
0.0862159
0.0950156
0.094761
0.0839091
0.0616134
0.0284277
-0.0144035
-0.0633938
-0.11551
-0.167356
-0.215451
-0.256515
-0.287732
-0.306971
-0.312946
-0.305295
-0.2846
-0.252338
-0.210775
-0.16279
-0.111647
-0.0607286
-0.0132731
0.0278828
0.0595408
0.0805711
0.0906446
0.0906215
0.0820145
0.066988
0.0759572
0.0932021
0.103466
0.104332
0.0941239
0.0718237
0.0379396
-0.00628615
-0.0572738
-0.111878
-0.16653
-0.217527
-0.261329
-0.294847
-0.315684
-0.322327
-0.314251
-0.291959
-0.256953
-0.211636
-0.159128
-0.10303
-0.0471229
0.0049331
0.049899
0.0840642
0.106063
0.115473
0.113351
0.101416
0.0822729
0.0872328
0.108511
0.122934
0.12785
0.121385
0.102262
0.0708228
0.0281693
-0.0221061
-0.0768863
-0.132569
-0.185356
-0.23155
-0.267863
-0.291667
-0.301213
-0.295749
-0.275595
-0.242124
-0.197685
-0.145427
-0.089055
-0.0325188
0.0203061
0.065951
0.100396
0.122097
0.130525
0.126806
0.112723
0.0910723
0.100439
0.126909
0.147105
0.158145
0.157966
0.145003
0.119329
0.0817734
0.0357697
-0.0157961
-0.0695059
-0.121682
-0.168673
-0.207152
-0.234375
-0.248405
-0.24825
-0.23395
-0.206588
-0.168231
-0.121778
-0.0707288
-0.0188862
0.0299631
0.0723793
0.104337
0.124226
0.131416
0.126936
0.112459
0.0906342
0.110855
0.142194
0.168384
0.186429
0.19416
0.189756
0.172955
0.144188
0.106478
0.0622288
0.0143931
-0.0337608
-0.0788992
-0.117895
-0.148065
-0.167388
-0.174645
-0.169524
-0.152653
-0.125575
-0.0906244
-0.0507416
-0.00920851
0.0306334
0.0656846
0.0922866
0.108897
0.114804
0.110757
0.0981228
0.0790216
0.114728
0.149365
0.180517
0.205273
0.221495
0.227188
0.221724
0.205027
0.17942
0.146564
0.108651
0.0682297
0.0280185
-0.00931428
-0.0413487
-0.0661027
-0.0821682
-0.0888254
-0.0861014
-0.0747815
-0.0563395
-0.0328098
-0.0065926
0.0197667
0.043815
0.062633
0.0748744
0.0797637
0.077597
0.0692388
0.0559378
0.110216
0.145844
0.180053
0.210269
0.234522
0.250759
0.257988
0.255556
0.244821
0.226491
0.201753
0.172178
0.139617
0.10606
0.0734889
0.0437335
0.0183478
-0.00150964
-0.0151627
-0.0224709
-0.0238247
-0.0200946
-0.0125271
-0.00260889
0.00808489
0.017662
0.0250597
0.0294475
0.0305445
0.0285564
0.0236323
0.097385
0.131456
0.166333
0.200011
0.23081
0.256739
0.276482
0.288792
0.293905
0.291473
0.281548
0.264586
0.241435
0.213275
0.181548
0.147857
0.113856
0.0811336
0.0510916
0.0248497
0.00317902
-0.013532
-0.0252734
-0.032372
-0.0354342
-0.0352054
-0.0324374
-0.02801
-0.02282
-0.0173842
-0.0126953
0.0776863
0.107765
0.140727
0.175294
0.210155
0.243503
0.273777
0.299199
0.318877
0.331456
0.335889
0.331547
0.318287
0.296488
0.26704
0.231285
0.190933
0.147931
0.10432
0.0620961
0.023078
-0.0112077
-0.0396131
-0.0614136
-0.0763346
-0.0840798
-0.0851236
-0.0803832
-0.0712949
-0.0590268
-0.045534
0.0533816
0.0773758
0.105879
0.138379
0.173975
0.211145
0.248206
0.283005
0.313685
0.338093
0.3543
0.360794
0.356624
0.341502
0.315845
0.280751
0.237921
0.189527
0.138042
0.0860723
0.0361669
-0.00934994
-0.0485336
-0.0799258
-0.102636
-0.115657
-0.119266
-0.114393
-0.102817
-0.0861396
-0.0668937
0.0272458
0.0436389
0.065469
0.0929133
0.12547
0.161981
0.200791
0.239606
0.275921
0.307126
0.330774
0.344822
0.347821
0.339061
0.318638
0.28745
0.247118
0.199845
0.148241
0.0951197
0.0432968
-0.00461355
-0.0463776
-0.0802725
-0.105184
-0.11989
-0.124578
-0.120146
-0.108435
-0.0911494
-0.0708872
0.00249792
0.0106493
0.0243438
0.0442515
0.0702237
0.101493
0.136594
0.173361
0.209048
0.241011
0.266726
0.28405
0.291422
0.288009
0.273784
0.249507
0.216644
0.177224
0.133652
0.0885108
0.0443579
0.00353418
-0.0319996
-0.0607739
-0.0818833
-0.0944288
-0.0986189
-0.0952717
-0.0859948
-0.0722247
-0.0561038
-0.0173662
-0.0169109
-0.011612
-0.000576628
0.016306
0.0386328
0.0652573
0.0943884
0.123474
0.150237
0.172518
0.188499
0.196884
0.197021
0.18895
0.173371
0.151542
0.125134
0.0960604
0.0662861
0.0376586
0.0117601
-0.0102018
-0.0274503
-0.0396531
-0.0466767
-0.048843
-0.046858
-0.0418556
-0.0347099
-0.0267095
-0.0291433
-0.0345227
-0.0364003
-0.0339517
-0.0269377
-0.0154853
-0.000357432
0.0171991
0.0351926
0.05203
0.0662487
0.0766899
0.0826194
0.0838018
0.0805032
0.0734313
0.063619
0.0522826
0.0406665
0.0298878
0.0208173
0.0139963
0.0096044
0.00747877
0.00717588
0.00784737
0.00899834
0.0100404
0.0104191
0.00996048
0.0083941
-0.0309017
-0.0391869
-0.045669
-0.0498423
-0.0514882
-0.0505926
-0.0475469
-0.0430037
-0.038159
-0.0337694
-0.03043
-0.0284759
-0.0279304
-0.0284931
-0.0295855
-0.0304408
-0.0302297
-0.0281931
-0.0237687
-0.0167063
-0.00712712
0.00446276
0.0172188
0.0300517
0.0417595
0.0505886
0.0558593
0.0570769
0.0542091
0.0477168
0.0382326
-0.0229713
-0.0308447
-0.0386146
-0.0462476
-0.0536761
-0.060893
-0.0679973
-0.0751201
-0.0826038
-0.0904033
-0.098279
-0.105776
-0.11224
-0.116861
-0.118762
-0.117106
-0.111222
-0.100719
-0.0855811
-0.0662358
-0.0435632
-0.0188501
0.00631553
0.0301903
0.0510503
0.0665934
0.0760018
0.0788341
0.0753812
0.0664927
0.0533417
-0.00836047
-0.0130562
-0.0189948
-0.0266381
-0.0361391
-0.0476128
-0.0609828
-0.0760205
-0.092342
-0.109304
-0.126054
-0.141569
-0.154724
-0.164373
-0.16946
-0.169124
-0.162812
-0.150362
-0.132069
-0.108709
-0.0815116
-0.0520824
-0.0222728
0.0059788
0.0308258
0.0499577
0.0625261
0.0681124
0.0670551
0.0602448
0.0488873
0.00787759
0.00773405
0.0056235
0.000698297
-0.00739601
-0.0189436
-0.0338041
-0.0515865
-0.071455
-0.0924834
-0.113552
-0.133424
-0.150833
-0.164582
-0.173636
-0.177217
-0.174877
-0.166553
-0.152591
-0.133744
-0.11113
-0.0861477
-0.0603657
-0.0353937
-0.0127452
0.00583755
0.0196305
0.0282339
0.0317725
0.0308397
0.0261634
0.020265
0.0242871
0.0263523
0.0254325
0.0210783
0.0128725
0.000942179
-0.0143329
-0.032012
-0.0512257
-0.0709671
-0.0901742
-0.107809
-0.122937
-0.134787
-0.142802
-0.146671
-0.146337
-0.141997
-0.134077
-0.123191
-0.110087
-0.0955896
-0.080532
-0.065703
-0.0518215
-0.0393236
-0.0285518
-0.0197694
-0.0129072
-0.00809131
0.024857
0.0311839
0.0362206
0.0389975
0.0391282
0.0361616
0.0301846
0.0214546
0.0106902
-0.00157421
-0.0147571
-0.0282938
-0.0416819
-0.0545151
-0.0664927
-0.0774144
-0.0871569
-0.0956465
-0.102828
-0.108633
-0.112951
-0.115631
-0.116485
-0.115316
-0.111962
-0.105902
-0.0971519
-0.0859351
-0.0729464
-0.0587028
-0.0443409
0.0210289
0.0272426
0.0332204
0.0382426
0.0421261
0.0445006
0.0454238
0.0449939
0.0434967
0.0409911
0.0374763
0.0328632
0.0269753
0.0195686
0.0103806
-0.000807685
-0.0141014
-0.0294283
-0.0464891
-0.0647202
-0.0832958
-0.101168
-0.117155
-0.130044
-0.138736
-0.141567
-0.138089
-0.128356
-0.113405
-0.094234
-0.0728468
0.0112007
0.0153017
0.0202412
0.0256542
0.0316299
0.0379674
0.0447187
0.0518484
0.0591619
0.0662601
0.0725878
0.0774427
0.0800209
0.0794854
0.075063
0.0661512
0.0524218
0.0339092
0.0110702
-0.0151804
-0.0434947
-0.072169
-0.0992871
-0.122887
-0.14117
-0.151686
-0.153595
-0.146757
-0.132387
-0.111739
-0.0874029
0.000330165
0.00158804
0.00443238
0.00879305
0.0149933
0.0229839
0.0328606
0.0445116
0.0573877
0.070801
0.0838538
0.0954718
0.104479
0.109693
0.110045
0.104709
0.0932132
0.0755362
0.0521682
0.0241395
-0.00701587
-0.0393543
-0.0706876
-0.098772
-0.121543
-0.136309
-0.142018
-0.138449
-0.12673
-0.108121
-0.0853331
-0.00716782
-0.0082304
-0.00751332
-0.00490395
2.17179e-05
0.00738325
0.0172279
0.0294542
0.0433954
0.0583118
0.0732529
0.0871011
0.0986492
0.106699
0.110173
0.108235
0.100391
0.0865746
0.0671966
0.0431689
0.0158658
-0.0129606
-0.0413329
-0.0672162
-0.0887336
-0.103515
-0.110597
-0.109558
-0.101415
-0.0871833
-0.0692794
-0.00934805
-0.0114102
-0.0120193
-0.0110122
-0.00801291
-0.0028263
0.0045907
0.0141252
0.0252328
0.0373262
0.0496537
0.0613376
0.0714343
0.0790118
0.0832337
0.0834455
0.0792491
0.0705641
0.0576632
0.0411847
0.0221066
0.00168434
-0.0186598
-0.0374567
-0.0533497
-0.0647062
-0.0707126
-0.0710054
-0.0663466
-0.0573559
-0.0459155
0.0519783
0.0674086
0.0805102
0.0904632
0.0963362
0.0975345
0.0938636
0.0854974
0.073697
0.0592911
0.0432154
0.0264312
0.00984428
-0.00576431
-0.0197841
-0.0317982
-0.0415735
-0.0490437
-0.0542801
-0.0574539
-0.0587945
-0.05855
-0.0569639
-0.0542543
-0.0506314
-0.0461661
-0.0409294
-0.0350129
-0.0288661
-0.0225388
-0.0171218
0.0666145
0.0857877
0.101612
0.112935
0.118582
0.118083
0.111155
0.0979729
0.0804126
0.0596837
0.0371222
0.0140741
-0.00822065
-0.0287188
-0.0466363
-0.0614791
-0.0730209
-0.0812723
-0.0864314
-0.0888248
-0.088843
-0.0868807
-0.0833039
-0.0784234
-0.0725155
-0.0656497
-0.0579171
-0.0493435
-0.040551
-0.0316781
-0.0238495
0.0702158
0.0893054
0.104215
0.113659
0.116332
0.111983
0.100217
0.0814873
0.0580919
0.0315936
0.00368847
-0.0239437
-0.049787
-0.0725971
-0.0914824
-0.105939
-0.115823
-0.121304
-0.122798
-0.12089
-0.116246
-0.109523
-0.101328
-0.0921692
-0.082472
-0.0724524
-0.0621795
-0.0516768
-0.0415519
-0.0318368
-0.0235435
0.0622887
0.0777483
0.088423
0.0929817
0.0902136
0.0799371
0.0620632
0.0373155
0.00822409
-0.0233339
-0.0553494
-0.0858593
-0.113116
-0.135716
-0.152696
-0.163578
-0.16834
-0.16737
-0.16138
-0.151319
-0.138252
-0.123255
-0.107331
-0.0913484
-0.076017
-0.0619034
-0.04914
-0.0376591
-0.0279339
-0.019728
-0.013642
0.0487808
0.0589638
0.063774
0.0620355
0.0526857
0.0357138
0.0112771
-0.0196136
-0.0542953
-0.0906084
-0.126256
-0.159
-0.186849
-0.208216
-0.22203
-0.2278
-0.225599
-0.216026
-0.200116
-0.17924
-0.154971
-0.128938
-0.102712
-0.0776906
-0.0550361
-0.035888
-0.0205321
-0.00884276
-0.00101522
0.00356255
0.00487629
0.0388186
0.0450288
0.0452786
0.0384858
0.0236619
0.000848533
-0.0295913
-0.0664074
-0.106806
-0.14834
-0.188394
-0.22439
-0.254008
-0.275367
-0.287169
-0.288795
-0.280312
-0.262451
-0.236532
-0.204355
-0.168047
-0.129888
-0.0921388
-0.0568763
-0.0258653
-0.00100278
0.0171534
0.0287348
0.0338863
0.0336461
0.0287128
0.0377356
0.0430278
0.0418442
0.0329997
0.0154327
-0.0109189
-0.0456109
-0.0872572
-0.132891
-0.179797
-0.22502
-0.265593
-0.298785
-0.322311
-0.334525
-0.334542
-0.32229
-0.298515
-0.264718
-0.223056
-0.176173
-0.126993
-0.0784965
-0.0334907
0.0055893
0.0360059
0.0568419
0.0681653
0.0704539
0.0651381
0.0537204
0.0478372
0.0561338
0.0575694
0.0506449
0.0340588
0.00747932
-0.028733
-0.0731866
-0.122707
-0.174364
-0.224889
-0.270927
-0.309297
-0.337257
-0.352722
-0.354434
-0.342059
-0.316216
-0.278446
-0.231122
-0.17727
-0.120342
-0.0639395
-0.0115298
0.0338246
0.0686013
0.0914973
0.102455
0.102203
0.0924642
0.0754178
0.0662532
0.080691
0.0882064
0.0868364
0.0749415
0.0517998
0.0175377
-0.0265969
-0.077279
-0.131501
-0.185811
-0.236575
-0.280256
-0.313707
-0.334419
-0.340734
-0.331972
-0.3085
-0.271727
-0.224029
-0.168583
-0.109119
-0.0496153
0.00602088
0.0542805
0.0910745
0.114774
0.125157
0.123061
0.110343
0.0895782
0.0873095
0.109337
0.12491
0.131584
0.12739
0.111173
0.0827094
0.0429513
-0.00481579
-0.0577381
-0.112431
-0.165229
-0.212471
-0.250793
-0.277399
-0.29029
-0.28842
-0.271797
-0.241506
-0.199661
-0.149258
-0.0939341
-0.0376681
0.0155578
0.0620989
0.0976713
0.120462
0.130068
0.12725
0.113783
0.0922246
0.104782
0.13395
0.157802
0.173552
0.179006
0.172615
0.153734
0.122872
0.0829611
0.0363927
-0.013861
-0.064465
-0.111976
-0.153112
-0.185014
-0.205477
-0.213116
-0.207493
-0.189168
-0.159689
-0.121477
-0.0776321
-0.0316593
0.0128372
0.0524739
0.083251
0.103355
0.112201
0.110257
0.0989603
0.0803666
0.113963
0.14831
0.179164
0.203657
0.219545
0.224974
0.218858
0.201121
0.173968
0.138994
0.098378
0.0547244
0.0108755
-0.030308
-0.0661669
-0.0944532
-0.113493
-0.12233
-0.120809
-0.10961
-0.0901903
-0.0646566
-0.0355654
-0.00568149
0.0222771
0.0450915
0.0611255
0.0696048
0.0704975
0.064639
0.0531175
0.112682
0.149403
0.184984
0.216796
0.242728
0.260746
0.269341
0.26774
0.25708
0.237876
0.211187
0.178545
0.141859
0.103275
0.0650241
0.0292521
-0.00213092
-0.027602
-0.0461467
-0.057342
-0.0613754
-0.0590057
-0.0514673
-0.0403255
-0.0273173
-0.0144822
-0.00315693
0.00568421
0.0113489
0.0138482
0.0129722
0.101098
0.137122
0.174588
0.211414
0.24577
0.275578
0.298963
0.314415
0.321777
0.32034
0.309859
0.290597
0.263338
0.229345
0.19028
0.148091
0.104877
0.0627289
0.0235701
-0.0109794
-0.0397073
-0.0618731
-0.0772276
-0.0859807
-0.08875
-0.0862119
-0.0793645
-0.0693874
-0.0576967
-0.0452116
-0.0335373
0.08091
0.113257
0.149477
0.188244
0.22811
0.267092
0.303052
0.333801
0.357862
0.373337
0.378705
0.372978
0.355821
0.327603
0.289401
0.242929
0.190421
0.134465
0.0778025
0.0231459
-0.0270119
-0.0705561
-0.105878
-0.131947
-0.148355
-0.154525
-0.151164
-0.139635
-0.122005
-0.100052
-0.0765814
0.05464
0.0806408
0.112407
0.149439
0.190726
0.234504
0.278525
0.3201
0.356623
0.385252
0.403441
0.409194
0.401264
0.379295
0.34387
0.296489
0.239449
0.175671
0.108472
0.0413287
-0.0223642
-0.0795328
-0.127626
-0.164761
-0.189829
-0.201411
-0.200031
-0.187182
-0.165358
-0.136925
-0.105412
0.0254158
0.0429835
0.0673644
0.0988049
0.136731
0.179701
0.225547
0.271373
0.313815
0.349511
0.375331
0.388697
0.387833
0.371949
0.341326
0.297295
0.242127
0.178836
0.110934
0.042173
-0.023742
-0.083412
-0.133981
-0.173302
-0.200063
-0.212628
-0.211491
-0.198169
-0.175256
-0.145276
-0.111822
-0.00291059
0.00515754
0.0200841
0.0426348
0.0726265
0.109
0.149859
0.192444
0.233138
0.268571
0.295576
0.311524
0.314581
0.303893
0.279665
0.243138
0.196449
0.142437
0.0843814
0.0257379
-0.0301374
-0.0802373
-0.122113
-0.154013
-0.174962
-0.183807
-0.181152
-0.168431
-0.147974
-0.121976
-0.093406
-0.0258272
-0.0268056
-0.0218617
-0.010033
0.00878486
0.0339072
0.0638574
0.0963373
0.128006
0.15599
0.177627
0.190758
0.193954
0.18666
0.169239
0.142916
0.109617
0.0717651
0.0320294
-0.0069247
-0.0426697
-0.0732075
-0.0971071
-0.113565
-0.122403
-0.12352
-0.117748
-0.106342
-0.0910773
-0.0734178
-0.0551745
-0.0388874
-0.04667
-0.0502416
-0.0487989
-0.0421067
-0.0305618
-0.0151563
0.0024948
0.0197827
0.0347183
0.0455563
0.0510147
0.0504258
0.0438146
0.0318846
0.0159167
-0.00241059
-0.0212303
-0.0387128
-0.0532802
-0.0637737
-0.0695604
-0.0705696
-0.0672511
-0.0604709
-0.0514558
-0.041324
-0.0311189
-0.0219171
-0.0142586
-0.00857082
-0.0391179
-0.0499366
-0.0586729
-0.0649942
-0.0687222
-0.0701158
-0.0697202
-0.0684005
-0.0677387
-0.0686549
-0.0717752
-0.0773112
-0.0849975
-0.094095
-0.10347
-0.111737
-0.117451
-0.119313
-0.116355
-0.10811
-0.0947013
-0.0768586
-0.0558517
-0.03335
-0.0112225
0.00808621
0.0231821
0.0332064
0.0377261
0.0370493
0.0319838
-0.0265276
-0.0359832
-0.0454582
-0.0552851
-0.0655126
-0.0764349
-0.0882735
-0.101237
-0.115805
-0.131882
-0.14903
-0.166447
-0.182992
-0.197264
-0.207733
-0.212909
-0.211536
-0.202775
-0.186345
-0.162646
-0.132773
-0.09846
-0.0619376
-0.0257236
0.00763633
0.0349583
0.0546657
0.0660113
0.0689784
0.0644036
0.0538471
-0.00485699
-0.00921952
-0.015238
-0.0239374
-0.0356874
-0.050956
-0.0698024
-0.0919887
-0.117054
-0.14415
-0.172067
-0.199285
-0.224067
-0.244586
-0.259083
-0.266037
-0.264339
-0.253435
-0.233436
-0.205174
-0.170179
-0.130581
-0.0889337
-0.0479892
-0.0104356
0.0205266
0.0433099
0.0572033
0.0622833
0.0594586
0.0503584
0.0191529
0.0217445
0.0218378
0.0178637
0.00915587
-0.00498387
-0.0245919
-0.0492408
-0.0778739
-0.1093
-0.141982
-0.174146
-0.203892
-0.229342
-0.248781
-0.260805
-0.264447
-0.259278
-0.245465
-0.223798
-0.195637
-0.162818
-0.127497
-0.0919685
-0.0584566
-0.0294103
-0.00619828
0.0104632
0.0204349
0.0242507
0.0229207
0.0379239
0.0468904
0.0534404
0.0557432
0.0529812
0.0442749
0.0295315
0.00914502
-0.0156765
-0.0438314
-0.0739484
-0.104499
-0.133906
-0.160655
-0.183398
-0.201039
-0.212804
-0.21828
-0.217443
-0.210644
-0.198572
-0.18219
-0.162649
-0.141197
-0.119075
-0.0973753
-0.0770152
-0.0586892
-0.0429599
-0.0299678
-0.0198297
0.0457833
0.058448
0.0695956
0.0774693
0.0813194
0.0802182
0.0740136
0.0629267
0.0478943
0.0295758
0.0087755
-0.0136443
-0.0368263
-0.0599748
-0.082385
-0.103457
-0.122688
-0.139667
-0.154052
-0.16555
-0.1739
-0.178866
-0.180252
-0.177925
-0.171845
-0.161457
-0.147044
-0.129204
-0.108973
-0.087246
-0.0654776
0.0414654
0.0542792
0.0669385
0.0780459
0.0871221
0.0933491
0.0965631
0.0967738
0.0943701
0.089394
0.0818838
0.0718338
0.0591908
0.0438695
0.0258015
0.00499869
-0.0183751
-0.0439434
-0.0710736
-0.0988427
-0.126053
-0.15129
-0.173038
-0.189803
-0.200285
-0.202404
-0.195761
-0.180766
-0.158826
-0.131446
-0.101237
0.0279259
0.0377973
0.0488926
0.0603317
0.0720176
0.0833719
0.0942762
0.104571
0.114029
0.122099
0.12809
0.131178
0.13046
0.125036
0.114121
0.0971743
0.0740174
0.0449304
0.0107149
-0.0272719
-0.067159
-0.106671
-0.143311
-0.174574
-0.198209
-0.211075
-0.21219
-0.201711
-0.181223
-0.152543
-0.119051
0.0117156
0.0172301
0.0249188
0.0343611
0.0458103
0.0589292
0.0737156
0.0899269
0.106872
0.123632
0.139057
0.151815
0.160479
0.16365
0.160101
0.148937
0.129732
0.102638
0.0684568
0.0286653
-0.0146369
-0.0588589
-0.10113
-0.138548
-0.168472
-0.187414
-0.194057
-0.188421
-0.171943
-0.146417
-0.115351
-0.000960328
0.000561449
0.00448367
0.0107226
0.0197085
0.0313759
0.0457265
0.0625524
0.0810025
0.100093
0.118598
0.1351
0.148094
0.156108
0.157846
0.152336
0.139062
0.118059
0.0899805
0.0561137
0.0183314
-0.0210272
-0.0593543
-0.0939933
-0.122513
-0.141817
-0.15067
-0.148754
-0.137354
-0.117899
-0.0935007
-0.00696749
-0.00781774
-0.0067067
-0.0035723
0.00201043
0.0101483
0.0208712
0.0339897
0.0487982
0.0645144
0.0801586
0.0946015
0.106644
0.115112
0.118971
0.117431
0.110041
0.0967701
0.0780455