# vtk DataFile Version 2.0
Func
ASCII
DATASET RECTILINEAR_GRID
DIMENSIONS 31 31 31
X_COORDINATES 31 double
-9.67742
-9.03226
-8.3871
-7.74194
-7.09677
-6.45161
-5.80645
-5.16129
-4.51613
-3.87097
-3.22581
-2.58065
-1.93548
-1.29032
-0.645161
0
0.645161
1.29032
1.93548
2.58065
3.22581
3.87097
4.51613
5.16129
5.80645
6.45161
7.09677
7.74194
8.3871
9.03226
9.67742
Y_COORDINATES 31 double
-9.67742
-9.03226
-8.3871
-7.74194
-7.09677
-6.45161
-5.80645
-5.16129
-4.51613
-3.87097
-3.22581
-2.58065
-1.93548
-1.29032
-0.645161
0
0.645161
1.29032
1.93548
2.58065
3.22581
3.87097
4.51613
5.16129
5.80645
6.45161
7.09677
7.74194
8.3871
9.03226
9.67742
Z_COORDINATES 31 double
-9.67742
-9.03226
-8.3871
-7.74194
-7.09677
-6.45161
-5.80645
-5.16129
-4.51613
-3.87097
-3.22581
-2.58065
-1.93548
-1.29032
-0.645161
0
0.645161
1.29032
1.93548
2.58065
3.22581
3.87097
4.51613
5.16129
5.80645
6.45161
7.09677
7.74194
8.3871
9.03226
9.67742
POINT_DATA 29791
SCALARS data double 1
LOOKUP_TABLE default
0.0012231
0.00125082
0.000652937
-0.000344624
-0.00174019
-0.00338325
-0.00513926
-0.00689149
-0.00842757
-0.00964107
-0.0105054
-0.0110838
-0.0115296
-0.0120721
-0.0129882
-0.0145627
-0.0170412
-0.0205832
-0.025224
-0.0308441
-0.0371594
-0.0437329
-0.0500177
-0.0554077
-0.0593171
-0.0609104
-0.0598399
-0.0559445
-0.0497053
-0.0414684
-0.0322743
-0.00322889
-0.00495277
-0.00748561
-0.0104703
-0.0138132
-0.0171807
-0.020333
-0.0230785
-0.025141
-0.0263779
-0.0267804
-0.0264856
-0.0257753
-0.0250499
-0.0247837
-0.0254631
-0.0275136
-0.0312285
-0.0367098
-0.0438192
-0.0521661
-0.0611227
-0.0698869
-0.0775599
-0.0832609
-0.0857117
-0.0844355
-0.079179
-0.0705281
-0.0590223
-0.0459698
-0.0106738
-0.0150844
-0.020337
-0.0259409
-0.0316613
-0.0369637
-0.0415234
-0.045054
-0.0472915
-0.0480879
-0.047476
-0.0456816
-0.043118
-0.0403487
-0.0380288
-0.0368268
-0.0373328
-0.039969
-0.0449151
-0.0520488
-0.0609274
-0.0708101
-0.0807312
-0.0895976
-0.0963256
-0.0993598
-0.0980439
-0.0921509
-0.0822579
-0.0689797
-0.0538125
-0.0186076
-0.0256912
-0.0334712
-0.0413764
-0.0490233
-0.0557552
-0.0611608
-0.064903
-0.0668059
-0.0667552
-0.0648428
-0.061376
-0.0568652
-0.0519802
-0.0474841
-0.0441484
-0.0426553
-0.0435035
-0.0469288
-0.0528422
-0.0608112
-0.0700826
-0.0796594
-0.088402
-0.0951728
-0.0983689
-0.0972771
-0.0915809
-0.0818703
-0.0687141
-0.0536407
-0.0228958
-0.0312409
-0.0400081
-0.0486312
-0.0566516
-0.0633981
-0.0684702
-0.0715481
-0.0725848
-0.0715368
-0.0685587
-0.0640057
-0.0584159
-0.0524647
-0.0469019
-0.0424714
-0.0398247
-0.0394356
-0.0415303
-0.0460343
-0.0525571
-0.0604147
-0.068702
-0.0763827
-0.0824227
-0.0853868
-0.0846052
-0.0797761
-0.0714114
-0.0599855
-0.0468941
-0.0196107
-0.0265413
-0.0335585
-0.0402562
-0.0462322
-0.0509751
-0.0541979
-0.0556817
-0.0554937
-0.0536791
-0.0504349
-0.0461069
-0.041169
-0.0361832
-0.0317478
-0.0284349
-0.0267254
-0.026947
-0.0292246
-0.0334446
-0.0392483
-0.0460539
-0.0531161
-0.0595998
-0.064685
-0.0672504
-0.0667699
-0.0630174
-0.0564333
-0.0473932
-0.0370964
-0.00732046
-0.00975813
-0.0119822
-0.0139019
-0.0153244
-0.0160697
-0.0160584
-0.0152416
-0.0137376
-0.0116697
-0.00923665
-0.00670586
-0.00439419
-0.00264044
-0.00177249
-0.00206972
-0.00372737
-0.00682474
-0.0113031
-0.0169518
-0.0234134
-0.0302052
-0.0367644
-0.0424981
-0.0468557
-0.0490918
-0.0488939
-0.0461672
-0.0413077
-0.0346312
-0.0270821
0.0120945
0.0164818
0.0212532
0.0260804
0.0308313
0.0352464
0.0391533
0.0424098
0.0449436
0.0465953
0.0472205
0.0466943
0.0449238
0.0418572
0.037496
0.0319042
0.0252166
0.0176395
0.009447
0.000974001
-0.00739909
-0.0152672
-0.0222314
-0.0279267
-0.0320604
-0.0342355
-0.0343675
-0.0325138
-0.0290549
-0.0242933
-0.0189344
0.0334515
0.045144
0.0572116
0.0688983
0.0797257
0.0889999
0.0963341
0.101443
0.104396
0.105067
0.103421
0.0995147
0.0934955
0.0855905
0.0760991
0.0653809
0.0538423
0.0419171
0.0300444
0.0186499
0.00812477
-0.00119156
-0.00902947
-0.0151997
-0.0196049
-0.0221033
-0.0227916
-0.0218438
-0.0196224
-0.016433
-0.0127732
0.0500992
0.0672588
0.0846006
0.101046
0.115864
0.128069
0.13718
0.142887
0.145477
0.144931
0.141369
0.135028
0.126247
0.115439
0.103073
0.0896488
0.0756788
0.0616647
0.0480735
0.0353193
0.0237478
0.0136249
0.00512992
-0.00164549
-0.00669481
-0.00999653
-0.0117134
-0.0120473
-0.0112906
-0.00972193
-0.00766451
0.0564071
0.0752776
0.0939954
0.111352
0.126561
0.138585
0.147038
0.151753
0.153258
0.151722
0.147435
0.140769
0.132148
0.122011
0.110787
0.0988825
0.0866733
0.0744981
0.0626535
0.0513938
0.0409313
0.0314367
0.0230397
0.0158286
0.00985009
0.00516211
0.00169655
-0.000640449
-0.001985
-0.0025149
-0.00240993
0.0501084
0.0662094
0.0817498
0.0956143
0.107198
0.115692
0.121003
0.123276
0.123278
0.121412
0.118129
0.113862
0.10898
0.103751
0.0983301
0.0927708
0.08705
0.0810984
0.0748359
0.0682051
0.0611991
0.0538771
0.0463682
0.038862
0.0315875
0.0248007
0.0187052
0.0134635
0.00918978
0.00589258
0.00350201
0.0334963
0.0432037
0.0519395
0.0588562
0.0637286
0.0662066
0.0666413
0.0656187
0.0641174
0.0627999
0.0622481
0.0628712
0.0648505
0.068108
0.0723217
0.0769749
0.0814315
0.0850224
0.0871353
0.0872962
0.085231
0.0808992
0.0744951
0.0664194
0.0572196
0.0475031
0.0379009
0.0289577
0.0210988
0.0145776
0.0093807
0.0129208
0.0148435
0.0154228
0.0141358
0.0112268
0.00690412
0.00202814
-0.00232467
-0.00497622
-0.00500846
-0.00173912
0.00515868
0.0155938
0.029039
0.0445801
0.0610142
0.076985
0.0911361
0.102264
0.109455
0.11218
0.110352
0.104311
0.0947727
0.0827146
0.0692246
0.0554623
0.0424254
0.0308459
0.0212231
0.0135157
-0.00326511
-0.00764107
-0.0136965
-0.0217285
-0.0310792
-0.0410471
-0.0503055
-0.0573214
-0.060691
-0.0592541
-0.0522364
-0.0393989
-0.0211068
0.00166612
0.027421
0.0542848
0.0802074
0.103183
0.121468
0.13377
0.139383
0.13825
0.130943
0.118569
0.102602
0.0846982
0.0665697
0.0496652
0.0349453
0.0230892
0.013913
-0.00757
-0.0142301
-0.0229226
-0.0339609
-0.0464651
-0.0594559
-0.0712702
-0.0800156
-0.0839831
-0.0817725
-0.0724842
-0.0559012
-0.0325696
-0.00379454
0.0284726
0.0618302
0.0936813
0.121516
0.143186
0.157146
0.162616
0.159653
0.149116
0.132535
0.111885
0.0894116
0.0673264
0.0474557
0.0308546
0.0182678
0.0092399
0.00404037
0.000412303
-0.00570154
-0.0149608
-0.0265333
-0.0394645
-0.0519263
-0.061783
-0.0668948
-0.065594
-0.0567715
-0.0400993
-0.0161294
0.0137064
0.0472257
0.0817253
0.114282
0.142082
0.162748
0.174614
0.176916
0.169876
0.154642
0.133131
0.107745
0.081274
0.0563082
0.0349298
0.0181343
0.00660835
-0.000489619
0.0307755
0.0351373
0.0363773
0.0331582
0.0259954
0.0155184
0.00356607
-0.00757362
-0.0151831
-0.0172644
-0.0123743
0.000103012
0.0198279
0.0454859
0.0749183
0.105369
0.133817
0.157343
0.173485
0.180554
0.177844
0.165721
0.145558
0.119549
0.0903943
0.0613029
0.0350907
0.0139579
-0.00128829
-0.0101116
-0.0138133
0.0673564
0.0828114
0.0942836
0.0995126
0.0985071
0.0913578
0.0798224
0.0663068
0.0542345
0.04602
0.0435772
0.047988
0.0593333
0.0766386
0.0979914
0.120789
0.142091
0.159004
0.169069
0.170598
0.162909
0.14643
0.122628
0.0938204
0.0628313
0.0331219
0.00758109
-0.0115934
-0.0238543
-0.0288483
-0.0283531
0.105866
0.132846
0.154785
0.168405
0.173146
0.168484
0.156085
0.138499
0.119921
0.103264
0.0910189
0.0848639
0.0854435
0.0922688
0.103811
0.117738
0.131277
0.141613
0.14629
0.143579
0.132737
0.114124
0.0891519
0.0600901
0.0297199
0.00157954
-0.0214852
-0.0373562
-0.0457519
-0.0464725
-0.0417349
0.138368
0.174729
0.20491
0.224685
0.232999
0.228782
0.213668
0.190406
0.163938
0.137709
0.114827
0.0976015
0.087278
0.083886
0.0863051
0.0924877
0.0998222
0.105541
0.107143
0.102781
0.0915469
0.0736188
0.0502201
0.0234487
-0.00407514
-0.0288697
-0.0481905
-0.0600239
-0.0643089
-0.0609316
-0.0524781
0.159276
0.201202
0.235901
0.258426
0.267396
0.261375
0.242046
0.212405
0.178009
0.142791
0.110409
0.0837296
0.0645115
0.0532173
0.0490532
0.0501789
0.0540729
0.0579493
0.0591964
0.0557872
0.0465912
0.0315469
0.01164
-0.0112499
-0.034697
-0.0553287
-0.0704987
-0.0782785
-0.0787618
-0.0718542
-0.0604343
0.166669
0.209968
0.245287
0.267282
0.274454
0.265219
0.241377
0.206163
0.165517
0.123724
0.0848195
0.0520344
0.0274498
0.0117821
0.00440818
0.0035711
0.00674809
0.011077
0.0138103
0.0127441
0.00655021
-0.00503169
-0.0212023
-0.0402435
-0.0598669
-0.0767697
-0.0883536
-0.0927302
-0.0900975
-0.0803481
-0.066595
0.162152
0.203428
0.236443
0.255799
0.260068
0.247721
0.220676
0.182325
0.13869
0.0941882
0.0529741
0.0183735
-0.00746641
-0.0237995
-0.0312548
-0.0316272
-0.027504
-0.0218297
-0.0174425
-0.0166355
-0.0208153
-0.0303041
-0.0443454
-0.0612455
-0.0787292
-0.093458
-0.102813
-0.104906
-0.100019
-0.0880534
-0.0723211
0.149512
0.186817
0.216142
0.232346
0.234201
0.220359
0.1928
0.154904
0.112466
0.0697566
0.0307546
-0.00140921
-0.024783
-0.0387999
-0.0442389
-0.0430053
-0.0377523
-0.0314431
-0.026888
-0.0263099
-0.0310101
-0.0411804
-0.0559229
-0.0734041
-0.0912259
-0.105898
-0.114735
-0.115831
-0.109568
-0.0959173
-0.0783607
0.132988
0.165812
0.19148
0.205342
0.206413
0.193584
0.168778
0.135166
0.0980208
0.0612063
0.028249
0.00183593
-0.0164824
-0.0264619
-0.0291034
-0.0264224
-0.0210713
-0.0159097
-0.0135577
-0.015982
-0.0241873
-0.0380551
-0.0563896
-0.0770948
-0.0975608
-0.114085
-0.123919
-0.125157
-0.118307
-0.103488
-0.0843134
0.115194
0.143799
0.166479
0.17924
0.18133
0.171871
0.152587
0.126246
0.0973718
0.0692038
0.044621
0.0257064
0.013505
0.00789858
0.00768992
0.0108376
0.0148186
0.0170336
0.015218
0.00781588
-0.00575361
-0.0249723
-0.0483011
-0.0733775
-0.097408
-0.116552
-0.128072
-0.130133
-0.123375
-0.108106
-0.0879182
0.0973204
0.122058
0.142338
0.154872
0.159099
0.154318
0.141949
0.124211
0.104742
0.0860411
0.0702545
0.0588235
0.0523012
0.0502744
0.0514614
0.0539376
0.0554647
0.0538503
0.0473039
0.0347537
0.0160601
-0.00790252
-0.0353471
-0.0637826
-0.090392
-0.111407
-0.124253
-0.12725
-0.121147
-0.106417
-0.0865248
0.0783955
0.0990009
0.116598
0.12866
0.134758
0.13437
0.128498
0.118755
0.107839
0.0974945
0.0891624
0.0837139
0.0813276
0.0814484
0.0828853
0.0840061
0.0830113
0.078226
0.0683826
0.0528662
0.03187
0.00644105
-0.0216293
-0.0500008
-0.0761174
-0.096624
-0.109297
-0.112781
-0.107812
-0.0949488
-0.0773654
0.0577715
0.0735644
0.0876192
0.0981164
0.104759
0.107079
0.105808
0.101944
0.0972722
0.0928743
0.089602
0.0879038
0.0877499
0.0886153
0.0895618
0.0893857
0.0868175
0.0807327
0.0703491
0.0553971
0.0362187
0.0137893
-0.0103803
-0.0343979
-0.056254
-0.0733511
-0.0840541
-0.0872418
-0.0836439
-0.0737561
-0.0602329
0.0368871
0.0473188
0.0570067
0.0647234
0.0703097
0.0733785
0.0743425
0.0737706
0.0726441
0.0715243
0.0708363
0.0707678
0.0712314
0.0718597
0.0720599
0.0711061
0.068261
0.0629012
0.0546334
0.043392
0.0294937
0.0136435
-0.0031333
-0.0195895
-0.0344324
-0.0460395
-0.0533283
-0.0556129
-0.0534551
-0.0471058
-0.0386503
-0.00205504
-0.00328547
-0.00531555
-0.00775953
-0.0105296
-0.0132884
-0.0158093
-0.0179156
-0.0193272
-0.0199149
-0.0196885
-0.0188077
-0.0175801
-0.0164334
-0.0158678
-0.0163934
-0.0184534
-0.0223509
-0.0281878
-0.0358157
-0.0448231
-0.0545522
-0.0641638
-0.072718
-0.0792925
-0.082571
-0.0820432
-0.0774319
-0.0693121
-0.0582201
-0.0454784
-0.0104178
-0.014741
-0.0200908
-0.025844
-0.0317329
-0.0371216
-0.0416142
-0.0449269
-0.0467162
-0.0468176
-0.0452899
-0.0424283
-0.0387573
-0.0349833
-0.0319221
-0.0304026
-0.0311529
-0.0346902
-0.0412286
-0.0506047
-0.0622599
-0.0752657
-0.0884144
-0.10034
-0.109685
-0.114462
-0.114023
-0.10796
-0.0969011
-0.0816157
-0.0638013
-0.022709
-0.0313244
-0.0409922
-0.050825
-0.0603322
-0.0685929
-0.0750649
-0.0793198
-0.0810714
-0.0801644
-0.076738
-0.0712365
-0.0643934
-0.0571674
-0.0506494
-0.0459413
-0.0440166
-0.0455844
-0.050977
-0.0600585
-0.0722021
-0.0863241
-0.100989
-0.114558
-0.125389
-0.131102
-0.130803
-0.124129
-0.111648
-0.0942257
-0.073791
-0.0348687
-0.0474827
-0.0609349
-0.0741467
-0.0864258
-0.0967102
-0.104319
-0.108745
-0.109869
-0.1076
-0.102176
-0.0941688
-0.0844537
-0.0741394
-0.0644632
-0.0566618
-0.0518264
-0.0507619
-0.0538702
-0.0610587
-0.0717165
-0.0847508
-0.0986965
-0.111868
-0.122567
-0.128382
-0.128349
-0.121966
-0.109837
-0.0927737
-0.0727104
-0.040782
-0.055031
-0.0697244
-0.0837433
-0.096318
-0.106418
-0.113381
-0.116737
-0.116582
-0.112946
-0.106164
-0.0968746
-0.0859777
-0.0745651
-0.0638212
-0.0549043
-0.0488212
-0.0463048
-0.0477146
-0.0529617
-0.0614925
-0.0723236
-0.0841446
-0.095452
-0.104734
-0.10988
-0.110005
-0.104636
-0.0943061
-0.0796989
-0.0625234
-0.0347238
-0.0464162
-0.0580738
-0.0687936
-0.0779363
-0.0847495
-0.0887663
-0.0896947
-0.0878146
-0.0832973
-0.0765447
-0.0681673
-0.0589462
-0.049768
-0.041547
-0.0351357
-0.0312362
-0.0303167
-0.032547
-0.037753
-0.0454154
-0.0547038
-0.0645617
-0.0738117
-0.0812964
-0.0854255
-0.0855412
-0.0812997
-0.0731929
-0.0617789
-0.0484561
-0.0147693
-0.0192007
-0.0231529
-0.0262147
-0.0281051
-0.0285793
-0.0275289
-0.0249684
-0.0212485
-0.0166693
-0.0116346
-0.00662404
-0.00215625
0.00125518
0.00314928
0.00316555
0.00108453
-0.0031387
-0.00935527
-0.0172145
-0.0261809
-0.035569
-0.0446065
-0.0525027
-0.0585355
-0.0617254
-0.0617489
-0.0584846
-0.052425
-0.0440576
-0.0344277
0.0160517
0.0224048
0.0295082
0.0370881
0.0449025
0.0525563
0.0597157
0.0660112
0.0711801
0.0748566
0.0767177
0.0765097
0.0740738
0.0693633
0.0624554
0.0535553
0.0429897
0.0311912
0.0186742
0.00600833
-0.00621625
-0.0174235
-0.0270927
-0.0347924
-0.0402146
-0.0429369
-0.0429951
-0.0405267
-0.0360559
-0.0300634
-0.023289
0.0498534
0.0677142
0.0863403
0.104739
0.122121
0.137475
0.150076
0.159267
0.165026
0.167025
0.165105
0.159295
0.149815
0.137068
0.121615
0.104146
0.0854409
0.066315
0.0475684
0.0299367
0.0140471
0.000387256
-0.0107169
-0.0191074
-0.0247877
-0.0277413
-0.0282901
-0.0267788
-0.0237432
-0.0196774
-0.0150745
0.0765533
0.103155
0.130257
0.15631
0.180122
0.200273
0.215836
0.22606
0.231273
0.231303
0.226224
0.216341
0.202179
0.184443
0.163976
0.141711
0.118621
0.0956569
0.0736901
0.0534649
0.0355589
0.0203615
0.00806714
-0.00131544
-0.0079357
-0.0119678
-0.0138431
-0.0139742
-0.0128203
-0.0108396
-0.00832585
0.0875682
0.11724
0.146911
0.174794
0.199589
0.219802
0.234611
0.243446
0.247021
0.24544
0.239035
0.228324
0.213971
0.196736
0.177424
0.156851
0.135805
0.115019
0.0951277
0.0766567
0.0599992
0.0454137
0.0330278
0.0228485
0.0147848
0.00871642
0.00435154
0.00142161
-0.000322512
-0.00119527
-0.00131971
0.0792762
0.105197
0.130468
0.153448
0.173083
0.18819
0.198378
0.203551
0.204785
0.202543
0.197404
0.189986
0.180883
0.170608
0.159571
0.148069
0.136306
0.124415
0.11248
0.100572
0.0887667
0.0771667
0.0659083
0.055158
0.0451022
0.0359247
0.0277455
0.0206719
0.0148032
0.0100913
0.00655569
0.0548142
0.0713432
0.0865262
0.0991877
0.108818
0.11486
0.117618
0.117691
0.116465
0.114803
0.113489
0.113114
0.114
0.116148
0.119257
0.122774
0.125987
0.128134
0.128505
0.126553
0.121961
0.114692
0.10499
0.0933469
0.0804366
0.0669836
0.0537565
0.041433
0.0305489
0.0214025
0.0140953
0.023389
0.0281138
0.0308212
0.0309398
0.0286443
0.0241534
0.0185863
0.0133256
0.0100419
0.00999168
0.0141196
0.0228999
0.0362479
0.0534927
0.0734402
0.0945039
0.114888
0.132794
0.146625
0.155171
0.157742
0.154236
0.145128
0.131393
0.114361
0.0955014
0.0763813
0.0583543
0.0423895
0.0291255
0.0186294
-0.00269317
-0.00796293
-0.0158828
-0.0265302
-0.0391165
-0.0527133
-0.0654411
-0.0751882
-0.0799665
-0.0781455
-0.068639
-0.0511054
-0.026046
0.00518761
0.040511
0.0773177
0.112757
0.144042
0.168759
0.185127
0.19219
0.189903
0.179096
0.161348
0.138749
0.113655
0.0884618
0.0651922
0.0451419
0.0291866
0.0171874
-0.012208
-0.0218902
-0.0348719
-0.0510822
-0.0693856
-0.0884069
-0.105708
-0.118615
-0.124702
-0.121974
-0.109163
-0.0859724
-0.0531949
-0.0127034
0.0327118
0.0796244
0.124338
0.163289
0.193443
0.212631
0.21979
0.215054
0.199702
0.175962
0.146696
0.115197
0.0846006
0.057485
0.0352881
0.0189512
0.00793139
0.00115672
-0.00532152
-0.0158716
-0.0307675
-0.0489127
-0.0688662
-0.0879038
-0.103
-0.111096
-0.109798
-0.0975426
-0.0738956
-0.0396943
0.00295738
0.0508807
0.100156
0.146561
0.186049
0.215219
0.231716
0.234504
0.223978
0.20187
0.171016
0.134949
0.0978417
0.0633854
0.0345314
0.0126495
-0.00143702
-0.00885023
0.0367287
0.0407119
0.0396144
0.0323106
0.0194688
0.00220864
-0.016712
-0.0340876
-0.0459942
-0.0495582
-0.0427458
-0.0247345
0.00390391
0.0411842
0.0839062
0.128016
0.169099
0.20291
0.225902
0.235675
0.231286
0.213366
0.184015
0.146524
0.104908
0.0640501
0.027971
-0.000206314
-0.0193568
-0.0289081
-0.0306678
0.0872425
0.106396
0.119159
0.123171
0.118392
0.105333
0.0866338
0.0656019
0.0472274
0.0349863
0.031577
0.0384659
0.0556453
0.0815696
0.113338
0.147063
0.178389
0.203073
0.21754
0.219388
0.20772
0.183286
0.148371
0.106498
0.0619209
0.0199853
-0.015172
-0.0404229
-0.0549867
-0.0585856
-0.0537236
0.141445
0.176695
0.203973
0.219528
0.22251
0.212709
0.192618
0.165681
0.138062
0.113954
0.0968781
0.0891334
0.0914838
0.103035
0.121382
0.142972
0.163637
0.179201
0.18607
0.181772
0.165332
0.137438
0.100335
0.0575404
0.0133097
-0.0268088
-0.0587184
-0.0793826
-0.088374
-0.0856618
-0.0743699
0.187854
0.236415
0.275304
0.299479
0.307372
0.298114
0.274146
0.239144
0.200409
0.162911
0.131049
0.108012
0.0953942
0.0929986
0.0989554
0.110058
0.122319
0.131582
0.134155
0.127382
0.110061
0.0826443
0.0471572
0.00692584
-0.0339591
-0.0699461
-0.0970466
-0.112335
-0.115677
-0.107184
-0.0904758
0.21821
0.274823
0.320197
0.348318
0.357138
0.345335
0.315436
0.271448
0.22161
0.171609
0.126638
0.0906681
0.0660007
0.0530182
0.0502646
0.0547712
0.0626202
0.0695786
0.0717579
0.0662281
0.0514712
0.0276204
-0.0035936
-0.0390982
-0.0750145
-0.105869
-0.127764
-0.137845
-0.136177
-0.122915
-0.102054
0.229451
0.288216
0.334603
0.362082
0.368423
0.35212
0.315894
0.264107
0.205591
0.146559
0.092748
0.0486435
0.016982
-0.00153235
-0.00816385
-0.00582236
0.00151274
0.00944683
0.0138578
0.0115426
0.000702204
-0.0187903
-0.0454259
-0.0763042
-0.107674
-0.134088
-0.151658
-0.157531
-0.151906
-0.13493
-0.110893
0.223603
0.279668
0.322909
0.346755
0.349076
0.328425
0.287737
0.231637
0.169103
0.106551
0.0498954
0.00374903
-0.0290811
-0.0478871
-0.0539922
-0.0504165
-0.0412872
-0.0311652
-0.0243374
-0.0241514
-0.0325143
-0.0496156
-0.0739637
-0.102634
-0.131831
-0.155976
-0.171102
-0.17431
-0.165899
-0.146037
-0.119286
0.205949
0.25648
0.294578
0.314048
0.313049
0.290359
0.24904
0.193758
0.133162
0.0734776
0.0203658
-0.0218471
-0.0506555
-0.0656417
-0.0683852
-0.0621092
-0.0510789
-0.0399185
-0.0328999
-0.0332792
-0.0428042
-0.0614517
-0.0874861
-0.117732
-0.148158
-0.172899
-0.187854
-0.190071
-0.179969
-0.157825
-0.128469
0.182542
0.226756
0.259745
0.275986
0.274006
0.252875
0.215598
0.166598
0.113766
0.0627391
0.0185334
-0.0151712
-0.0364595
-0.0453981
-0.0439107
-0.0354045
-0.0241676
-0.014694
-0.0109929
-0.015952
-0.0308822
-0.0552924
-0.0869884
-0.122381
-0.157096
-0.184908
-0.201608
-0.204241
-0.193387
-0.169532
-0.137759
0.157316
0.195571
0.224456
0.239289
0.23896
0.222807
0.193564
0.155115
0.114248
0.0756984
0.0435495
0.0206112
0.00807071
0.00533969
0.0102118
0.019244
0.0283377
0.0333779
0.030873
0.0185337
-0.00433139
-0.0366473
-0.0757165
-0.117556
-0.157524
-0.189171
-0.208319
-0.212129
-0.201353
-0.176746
-0.143451
0.1323
0.165233
0.191003
0.205815
0.208859
0.199657
0.180495
0.154504
0.127159
0.102124
0.0824305
0.0699717
0.0652426
0.0672514
0.0736963
0.081331
0.0864957
0.0856865
0.0761149
0.0562013
0.0258932
-0.013227
-0.0581179
-0.104631
-0.148114
-0.182248
-0.20311
-0.208115
-0.198172
-0.174253
-0.1414
0.106193
0.133597
0.156031
0.170631
0.176806
0.174262
0.16464
0.150226
0.1351
0.121834
0.112447
0.108034
0.108586
0.112956
0.119028
0.124036
0.125009
0.119237
0.104715
0.0805349
0.0471161
0.00626078
-0.0390297
-0.0848824
-0.127084
-0.159998
-0.180237
-0.185742
-0.177396
-0.156267
-0.126961
0.078385
0.0995008
0.117592
0.130642
0.138243
0.140067
0.13733
0.131451
0.125162
0.120069
0.117361
0.117558
0.120407
0.124874
0.129287
0.13158
0.129621
0.12155
0.106103
0.082877
0.0524856
0.0165795
-0.0223162
-0.0610616
-0.0963245
-0.123705
-0.140707
-0.145592
-0.139309
-0.122786
-0.0998571
0.0505407
0.0646731
0.0773276
0.0872018
0.0940394
0.0974783
0.0982411
0.0971755
0.0958053
0.0949833
0.0953028
0.0969539
0.0996676
0.10272
0.105029
0.105311
0.102285
0.0948831
0.0824376
0.0648456
0.0426527
0.0170574
-0.0102047
-0.0370314
-0.0612372
-0.0800308
-0.091696
-0.0951277
-0.0911299
-0.0802609
-0.0654534
-0.00848482
-0.0119344
-0.0162074
-0.0207018
-0.0251924
-0.0291127
-0.0321422
-0.0340309
-0.0344982
-0.0334282
-0.0309056
-0.0272269
-0.0228903
-0.0185538
-0.0149692
-0.0128959
-0.0129991
-0.015752
-0.0213547
-0.0296695
-0.0402032
-0.0521309
-0.0643765
-0.0757197
-0.0849447
-0.0903711
-0.0912312
-0.0872174
-0.0788671
-0.066781
-0.0524948
-0.0218764
-0.0300716
-0.0393089
-0.0486074
-0.0574657
-0.0649092
-0.0703784
-0.0734719
-0.0738824
-0.0714739
-0.0664259
-0.0592428
-0.0507358
-0.0419534
-0.0340819
-0.0283161
-0.0257108
-0.0270358
-0.0326565
-0.0424377
-0.055719
-0.071351
-0.0878062
-0.103335
-0.116178
-0.123841
-0.125327
-0.120196
-0.10898
-0.0925288
-0.0727977
-0.0396516
-0.0538863
-0.069158
-0.0840688
-0.097805
-0.109034
-0.116968
-0.121038
-0.121056
-0.116922
-0.108944
-0.097837
-0.0846989
-0.0709121
-0.058021
-0.0475717
-0.0409328
-0.0391215
-0.0426586
-0.0514551
-0.064781
-0.0813121
-0.0992588
-0.116555
-0.131104
-0.139968
-0.141827
-0.136307
-0.123832
-0.105361
-0.0830611
-0.0561979
-0.0757398
-0.0960371
-0.115393
-0.132728
-0.146542
-0.155867
-0.160059
-0.159185
-0.153247
-0.142695
-0.128412
-0.111672
-0.0940305
-0.0771948
-0.0628516
-0.0524887
-0.047218
-0.0476313
-0.0536891
-0.0646912
-0.0793262
-0.0958035
-0.112043
-0.125927
-0.134542
-0.136511
-0.131307
-0.119391
-0.101627
-0.0801614
-0.0635241
-0.0849605
-0.106653
-0.126832
-0.144338
-0.157755
-0.166153
-0.168978
-0.166606
-0.15921
-0.147372
-0.132051
-0.114522
-0.0962797
-0.0789042
-0.0639195
-0.0526416
-0.046033
-0.0445877
-0.0482457
-0.0563761
-0.0678263
-0.0810418
-0.0942297
-0.105573
-0.112618
-0.114153
-0.109709
-0.099696
-0.0848168
-0.0669078
-0.0544878
-0.0721369
-0.0894299
-0.104882
-0.117547
-0.126405
-0.130832
-0.130553
-0.1262
-0.118154
-0.107083
-0.0938946
-0.0796715
-0.0655842
-0.0527935
-0.0423468
-0.0350843
-0.0315509
-0.031933
-0.0360184
-0.0432023
-0.0525357
-0.0628221
-0.0727387
-0.0809876
-0.0858524
-0.0864967
-0.0826469
-0.0747227
-0.0632888
-0.0497809
-0.0268182
-0.0344219
-0.0410755
-0.0459697
-0.048677
-0.0488668
-0.046465
-0.0416421
-0.0351425
-0.0275355
-0.0194982
-0.0117505
-0.00499586
0.000139523
0.00315999
0.00374334
0.00176586
-0.00268299
-0.00930338
-0.0175999
-0.0269162
-0.0364858
-0.0454997
-0.0531765
-0.0588388
-0.0616125
-0.0611844
-0.0575996
-0.051357
-0.0429679
-0.033444
0.0153131
0.0224092
0.0308569
0.0405162
0.0510744
0.0620186
0.072735
0.0825477
0.090811
0.0968415
0.100058
0.100045
0.0965985
0.0897539
0.0797855
0.0671882
0.0526352
0.0369214
0.0208969
0.00540094
-0.00880005
-0.021065
-0.0309186
-0.0380727
-0.0424312
-0.0438788
-0.0426499
-0.0391592
-0.0340236
-0.0277921
-0.021128
0.061535
0.0843256
0.108558
0.133088
0.156828
0.178463
0.196749
0.210595
0.219658
0.223271
0.221055
0.212964
0.199314
0.180766
0.158285
0.133068
0.106453
0.0798109
0.0544345
0.0314384
0.0116798
-0.00429102
-0.0162471
-0.0242697
-0.028697
-0.0299609
-0.0287348
-0.0257333
-0.0216566
-0.0171183
-0.0125139
0.0986074
0.133534
0.169628
0.20495
0.237838
0.266437
0.289135
0.30468
0.313174
0.31413
0.307452
0.293461
0.272881
0.246803
0.216606
0.183861
0.150223
0.117303
0.086551
0.0591455
0.0359217
0.0173295
0.00343635
-0.00603592
-0.0116324
-0.0140412
-0.0141294
-0.0127238
-0.0104823
-0.00801535
-0.00550462
0.115142
0.154818
0.195053
0.233545
0.268449
0.297795
0.320036
0.334115
0.340637
0.339448
0.330781
0.315231
0.293721
0.267438
0.23775
0.206119
0.174016
0.142818
0.11372
0.0876604
0.0652719
0.0468604
0.0324207
0.0216748
0.0141451
0.00921269
0.0061529
0.0043105
0.00325255
0.00251793
0.00211472
0.106032
0.141455
0.176588
0.209305
0.238049
0.261219
0.277809
0.287335
0.290873
0.288724
0.281435
0.269734
0.254464
0.236515
0.21677
0.196053
0.175112
0.15459
0.135002
0.11673
0.100026
0.0850132
0.0717105
0.0600508
0.0499129
0.0410762
0.0333198
0.0264665
0.020494
0.0152547
0.0109229
0.0747985
0.0983102
0.120572
0.140099
0.156028
0.167534
0.174533
0.17741
0.177639
0.176031
0.173397
0.170436
0.167643
0.165261
0.163268
0.161411
0.159278
0.156374
0.152215
0.146405
0.138707
0.129078
0.117687
0.104892
0.0912006
0.0771027
0.0631912
0.0500184
0.0380904
0.0276789
0.0190536
0.0328188
0.0407392
0.0464558
0.0493497
0.0494645
0.046954
0.042843
0.0385113
0.0357778
0.0359621
0.0400755
0.0486588
0.061685
0.0785258
0.0980113
0.118561
0.138371
0.155622
0.168696
0.176358
0.177899
0.173206
0.162753
0.147529
0.128889
0.108303
0.0873748
0.0675137
0.0497543
0.0347777
0.0227973
-0.00434424
-0.0103753
-0.0195098
-0.0315949
-0.0457464
-0.0608767
-0.0749234
-0.0855633
-0.090614
-0.0882835
-0.0773957
-0.0576005
-0.0294821
0.00543583
0.0448217
0.0857708
0.125114
0.159763
0.187047
0.205007
0.212602
0.209805
0.197564
0.177651
0.15241
0.124483
0.0965281
0.070789
0.0486979
0.0312066
0.0182428
-0.0221784
-0.0356625
-0.0531311
-0.0740705
-0.0970748
-0.120408
-0.141254
-0.15654
-0.163596
-0.160184
-0.14493
-0.117586
-0.0791547
-0.0318726
0.0209845
0.0754295
0.127187
0.172158
0.206874
0.228887
0.237032
0.231535
0.213938
0.186875
0.153695
0.118293
0.0842751
0.054559
0.0307477
0.0138372
0.00320455
-0.0120839
-0.0237528
-0.0403803
-0.0617084
-0.0862864
-0.112164
-0.136161
-0.154709
-0.164421
-0.162592
-0.147529
-0.118873
-0.0777566
-0.0267811
0.0302192
0.0885758
0.143303
0.189663
0.223714
0.242776
0.245745
0.233211
0.207337
0.171569
0.130154
0.0881772
0.0499724
0.0188894
-0.00355497
-0.016557
-0.0215219
0.0259067
0.0251431
0.0182136
0.00447078
-0.0150804
-0.0387246
-0.0632893
-0.0849105
-0.0992098
-0.102922
-0.0938318
-0.0711727
-0.035834
0.00964397
0.0613159
0.114274
0.163234
0.203176
0.229961
0.240866
0.234934
0.213104
0.17806
0.133887
0.0855033
0.0389811
-0.000886913
-0.0305714
-0.048853
-0.0552861
-0.0521899
0.0834582
0.0997643
0.108364
0.107201
0.0964748
0.0773215
0.0526777
0.0266111
0.004751
-0.00893247
-0.0114619
-0.00135307
0.0211139
0.053851
0.093194
0.134359
0.172076
0.201283
0.217791
0.218882
0.203697
0.173378
0.130916
0.0807658
0.0282244
-0.0199534
-0.0587657
-0.0846963
-0.0969356
-0.0954398
-0.0834406
0.147042
0.182044
0.207474
0.219642
0.217802
0.20236
0.175978
0.142965
0.110359
0.0829858
0.064785
0.0581983
0.0638132
0.0802527
0.104373
0.131713
0.157165
0.175692
0.183055
0.176455
0.154965
0.119705
0.0736992
0.0214831
-0.0315509
-0.0782905
-0.113698
-0.134363
-0.139885
-0.130543
-0.110362
0.202531
0.253304
0.29247
0.314802
0.318708
0.303922
0.272959
0.230496
0.184962
0.142126
0.106975
0.0829953
0.0717165
0.0725347
0.0828644
0.0985787
0.114697
0.126144
0.128512
0.118761
0.0957024
0.0602175
0.0151326
-0.0351561
-0.0853575
-0.128249
-0.158824
-0.17377
-0.173006
-0.156985
-0.130348
0.239512
0.300007
0.346978
0.37404
0.379042
0.361256
0.32327
0.270242
0.211782
0.154554
0.104505
0.0660441
0.0415102
0.030924
0.0321083
0.041121
0.0529655
0.062382
0.0646601
0.0563895
0.0359989
0.00401971
-0.0370123
-0.0829159
-0.128549
-0.166679
-0.192288
-0.202087
-0.196195
-0.175095
-0.143879
0.253821
0.317068
0.365355
0.391682
0.393707
0.370526
0.324992
0.262766
0.194241
0.126753
0.0669285
0.0197823
-0.0118646
-0.0276765
-0.0296975
-0.0219112
-0.00950315
0.00196758
0.00742758
0.00308766
-0.0129722
-0.0405039
-0.077172
-0.118906
-0.160606
-0.194948
-0.216807
-0.222816
-0.213201
-0.188411
-0.153898
0.247562
0.307745
0.352348
0.374331
0.371499
0.343043
0.292145
0.224847
0.151788
0.0805965
0.0181341
-0.0304374
-0.0622539
-0.0770488
-0.0770353
-0.0664439
-0.0507548
-0.0358328
-0.0270321
-0.0283644
-0.0418879
-0.0673957
-0.102501
-0.143003
-0.183627
-0.216765
-0.237069
-0.241041
-0.228984
-0.201348
-0.16394
0.226986
0.280683
0.319196
0.335941
0.329097
0.298122
0.246447
0.180209
0.109712
0.0423958
-0.0151642
-0.0581613
-0.0841321
-0.0932263
-0.0880544
-0.0731921
-0.0543872
-0.0376711
-0.028447
-0.0306512
-0.0461473
-0.074431
-0.112746
-0.156489
-0.199987
-0.23515
-0.256363
-0.260007
-0.246491
-0.216396
-0.175907
0.199479
0.245769
0.278289
0.291242
0.283277
0.254169
0.207382
0.148779
0.0877909
0.031177
-0.015254
-0.0474829
-0.0637874
-0.0649504
-0.0540615
-0.0359891
-0.0165786
-0.00176327
0.00333032
-0.00480472
-0.0274899
-0.063613
-0.109796
-0.16085
-0.210597
-0.25039
-0.274407
-0.279002
-0.264753
-0.232512
-0.188848
0.170098
0.20953
0.237431
0.248966
0.243222
0.220238
0.183237
0.137413
0.0908922
0.049358
0.0175013
-0.00170806
-0.00743326
-0.00110224
0.0138342
0.0324417
0.0490826
0.0582653
0.0554809
0.03795
0.00511624
-0.0411733
-0.0968939
-0.156336
-0.21295
-0.257754
-0.284933
-0.290985
-0.276695
-0.243258
-0.197406
0.141664
0.175272
0.200032
0.212103
0.210907
0.196625
0.17199
0.141243
0.110937
0.0854643
0.0682567
0.0611956
0.0643055
0.0756982
0.0918382
0.10806
0.119287
0.120793
0.10894
0.0818245
0.0396724
-0.015053
-0.0779144
-0.143009
-0.203791
-0.251439
-0.280472
-0.287713
-0.274153
-0.241268
-0.195712
0.112941
0.140841
0.162571
0.17531
0.178687
0.172973
0.160161
0.143394
0.127548
0.115696
0.11007
0.111632
0.119865
0.132773
0.147138
0.158967
0.164099
0.158838
0.140541
0.108133
0.0623992
0.00602572
-0.0566642
-0.120185
-0.178611
-0.224051
-0.251758
-0.259237
-0.247452
-0.217993
-0.17693
0.0830467
0.104629
0.122428
0.134479
0.140575
0.140808
0.136649
0.130103
0.12443
0.121539
0.122702
0.128259
0.137505
0.14871
0.159333
0.166367
0.166794
0.158044
0.138425
0.107484
0.0661964
0.0169764
-0.0365589
-0.0899636
-0.138541
-0.1761
-0.199128
-0.205488
-0.19628
-0.172862
-0.14029
0.0536489
0.0682387
0.0809293
0.0904811
0.0967643
0.0996706
0.100084
0.0992032
0.0988539
0.100045
0.103383
0.108903
0.116006
0.123493
0.129703
0.132741
0.13076
0.122253
0.106311
0.0828384
0.0526649
0.0175363
-0.0200529
-0.057107
-0.0905184
-0.116321
-0.132077
-0.136405
-0.130297
-0.1146
-0.0931395
-0.0174838