# vtk DataFile Version 2.0
Func
ASCII
DATASET RECTILINEAR_GRID
DIMENSIONS 31 31 31
X_COORDINATES 31 double
-9.67742
-9.03226
-8.3871
-7.74194
-7.09677
-6.45161
-5.80645
-5.16129
-4.51613
-3.87097
-3.22581
-2.58065
-1.93548
-1.29032
-0.645161
0
0.645161
1.29032
1.93548
2.58065
3.22581
3.87097
4.51613
5.16129
5.80645
6.45161
7.09677
7.74194
8.3871
9.03226
9.67742
Y_COORDINATES 31 double
-9.67742
-9.03226
-8.3871
-7.74194
-7.09677
-6.45161
-5.80645
-5.16129
-4.51613
-3.87097
-3.22581
-2.58065
-1.93548
-1.29032
-0.645161
0
0.645161
1.29032
1.93548
2.58065
3.22581
3.87097
4.51613
5.16129
5.80645
6.45161
7.09677
7.74194
8.3871
9.03226
9.67742
Z_COORDINATES 31 double
-9.67742
-9.03226
-8.3871
-7.74194
-7.09677
-6.45161
-5.80645
-5.16129
-4.51613
-3.87097
-3.22581
-2.58065
-1.93548
-1.29032
-0.645161
0
0.645161
1.29032
1.93548
2.58065
3.22581
3.87097
4.51613
5.16129
5.80645
6.45161
7.09677
7.74194
8.3871
9.03226
9.67742
POINT_DATA 29791
SCALARS data double 1
LOOKUP_TABLE default
-0.0262911
-0.031676
-0.0349147
-0.0345265
-0.0300917
-0.0210203
-0.00766391
0.00924047
0.0284243
0.0486553
0.0685413
0.0866608
0.101674
0.112441
0.118108
0.118176
0.112537
0.10149
0.0857161
0.0662409
0.0443574
0.0215325
-0.000717173
-0.0209403
-0.0378886
-0.0501849
-0.0571968
-0.0587125
-0.0555509
-0.0483373
-0.0388932
-0.0386725
-0.0469666
-0.0519185
-0.0517867
-0.0458239
-0.0331947
-0.0144049
0.00957328
0.0368906
0.0657743
0.0942172
0.120155
0.141633
0.156972
0.164905
0.164676
0.156104
0.139602
0.11616
0.0872802
0.0548749
0.0211249
-0.0117039
-0.0414359
-0.0661906
-0.0838136
-0.0934322
-0.0947681
-0.0889837
-0.0771199
-0.0617317
-0.0450725
-0.0550003
-0.061007
-0.0611923
-0.0546627
-0.0404936
-0.0191174
0.00833679
0.0397591
0.0731018
0.106026
0.136097
0.160981
0.178647
0.187529
0.186662
0.175761
0.155271
0.12634
0.0907721
0.050895
0.00939711
-0.0309013
-0.0672709
-0.0973333
-0.118299
-0.129008
-0.129241
-0.120402
-0.10385
-0.082802
-0.0434868
-0.0534353
-0.0597162
-0.0605028
-0.0549175
-0.0419754
-0.0220367
0.00389569
0.0338741
0.0659556
0.0978689
0.127198
0.15157
0.168864
0.177385
0.176014
0.164326
0.142647
0.112069
0.0744073
0.0320845
-0.0120367
-0.0549001
-0.0935014
-0.125187
-0.146766
-0.156917
-0.155305
-0.143552
-0.123164
-0.097795
-0.0360154
-0.0446852
-0.0508085
-0.0527285
-0.0496738
-0.0407025
-0.0259337
-0.00602163
0.0176202
0.0435081
0.069807
0.09447
0.11539
0.130583
0.138359
0.137484
0.12732
0.107922
0.0800852
0.0453411
0.0058782
-0.035607
-0.0761447
-0.11274
-0.142684
-0.162622
-0.171121
-0.16775
-0.154123
-0.13173
-0.104324
-0.0275767
-0.035025
-0.0414707
-0.0454329
-0.0462611
-0.0430482
-0.0355793
-0.0240118
-0.00903889
0.00850594
0.0274155
0.0461862
0.063119
0.0764624
0.0845719
0.0860806
0.0800617
0.0661676
0.044721
0.0167646
-0.015974
-0.0511911
-0.086215
-0.11824
-0.144642
-0.162073
-0.16901
-0.164867
-0.151078
-0.128956
-0.102096
-0.0231337
-0.0307576
-0.0388094
-0.045977
-0.0516519
-0.0548878
-0.0550894
-0.0518788
-0.0452523
-0.0353866
-0.0228632
-0.00865317
0.00593181
0.0193441
0.0299458
0.0361858
0.0367876
0.0309266
0.0183701
-0.000422454
-0.024284
-0.051405
-0.0795065
-0.106055
-0.128566
-0.143817
-0.15018
-0.146868
-0.134985
-0.115545
-0.0917381
-0.0264673
-0.0364116
-0.0477534
-0.0591809
-0.0699955
-0.0790925
-0.0855197
-0.0884451
-0.0873973
-0.0820712
-0.0726109
-0.059639
-0.0442443
-0.0279024
-0.0123373
0.000662735
0.00945448
0.012749
0.0097915
0.000501983
-0.0144676
-0.0337619
-0.055464
-0.077291
-0.0968852
-0.111188
-0.118454
-0.117667
-0.109523
-0.0946796
-0.0757893
-0.0384623
-0.0529043
-0.0690262
-0.0853185
-0.100856
-0.114265
-0.124326
-0.129929
-0.130483
-0.125489
-0.114945
-0.0993952
-0.0799317
-0.0581166
-0.0358453
-0.0151543
0.00199955
0.0139676
0.0196112
0.0184637
0.0108109
-0.00231555
-0.0192592
-0.0379193
-0.0560272
-0.0707004
-0.0800922
-0.0829772
-0.0796352
-0.0703914
-0.0573077
-0.0573447
-0.0777774
-0.0994635
-0.120512
-0.139684
-0.155276
-0.165944
-0.170529
-0.168702
-0.160084
-0.144841
-0.123715
-0.0980064
-0.0694864
-0.0402536
-0.0125362
0.0115263
0.0301102
0.041909
0.0462919
0.0433848
0.0340657
0.0198545
0.00274055
-0.0150752
-0.0308979
-0.0428405
-0.0495508
-0.0509628
-0.0471485
-0.0396176
-0.0792675
-0.106006
-0.13302
-0.157926
-0.179161
-0.194711
-0.203274
-0.203883
-0.196773
-0.181964
-0.160038
-0.132127
-0.0998675
-0.0652779
-0.030609
0.00184915
0.0299664
0.051977
0.0666539
0.0734395
0.0725037
0.0647259
0.0515842
0.0349898
0.0170523
0.000241201
-0.0136285
-0.0232063
-0.0282091
-0.0285748
-0.0253608
-0.0996504
-0.131727
-0.162818
-0.190035
-0.211568
-0.225185
-0.22979
-0.224798
-0.211192
-0.189554
-0.161014
-0.127176
-0.0900193
-0.0517496
-0.0146435
0.0191283
0.0476633
0.0694881
0.0836824
0.0899617
0.0886956
0.0808635
0.067939
0.0517332
0.034191
0.0174869
0.00322011
-0.00741324
-0.0140674
-0.0166709
-0.0159605
-0.114587
-0.150037
-0.18324
-0.210893
-0.231069
-0.241469
-0.241326
-0.230554
-0.210913
-0.183589
-0.150266
-0.112972
-0.0739398
-0.0354287
0.000427092
0.0317662
0.0571117
0.0754706
0.0863941
0.0899987
0.086935
0.0783134
0.0655836
0.0503922
0.0344178
0.0194548
0.00674783
-0.00280219
-0.0089334
-0.0116672
-0.011559
-0.121835
-0.15823
-0.191336
-0.217596
-0.23512
-0.241702
-0.236971
-0.221368
-0.197324
-0.166567
-0.13123
-0.093638
-0.0561284
-0.0208563
0.0103455
0.0360739
0.0554087
0.0679449
0.0737819
0.0734804
0.067982
0.0585057
0.0464267
0.0331546
0.0200123
0.00834856
-0.0010407
-0.00764408
-0.0113961
-0.0124743
-0.0113823
-0.121146
-0.156169
-0.187195
-0.2106
-0.224661
-0.227402
-0.218847
-0.199912
-0.17351
-0.141774
-0.107132
-0.0720473
-0.0388124
-0.00934993
0.014907
0.0330808
0.0448454
0.0503929
0.0503578
0.0457155
0.0376594
0.0274753
0.0164226
0.00563644
-0.00395056
-0.0114422
-0.0165082
-0.0190517
-0.0192702
-0.0175208
-0.0143701
-0.113918
-0.145802
-0.173316
-0.192948
-0.203213
-0.202449
-0.19102
-0.170204
-0.14318
-0.112327
-0.0802114
-0.0492977
-0.0217341
0.000844171
0.017413
0.0275879
0.0315734
0.0300775
0.0241841
0.0152076
0.00453893
-0.00649516
-0.0167467
-0.025323
-0.0316318
-0.0351485
-0.0359377
-0.0342673
-0.0306205
-0.0255313
-0.0197297
-0.102441
-0.130167
-0.153409
-0.1689
-0.17541
-0.171605
-0.158098
-0.136384
-0.109721
-0.080583
-0.0515547
-0.025025
-0.00297127
0.0132274
0.0228721
0.0259478
0.0230448
0.0152395
0.00393713
-0.00930035
-0.0229261
-0.0355575
-0.0460901
-0.0537622
-0.0581834
-0.059028
-0.0566088
-0.0514478
-0.0443048
-0.0358785
-0.027151
-0.0890857
-0.112342
-0.131161
-0.142594
-0.145628
-0.13922
-0.12412
-0.101908
-0.0757612
-0.0481481
-0.0216001
0.00158519
0.0195576
0.0310915
0.0356617
0.0334403
0.0252103
0.0122393
-0.00388755
-0.0214451
-0.0387467
-0.0542976
-0.0669153
-0.0757969
-0.0805521
-0.080817
-0.0769618
-0.0696192
-0.059795
-0.0483454
-0.0365758
-0.0757381
-0.0947489
-0.109445
-0.117219
-0.117206
-0.108583
-0.0921305
-0.0693929
-0.0433658
-0.0164431
0.00892281
0.0304988
0.0464777
0.0556517
0.0574929
0.0521617
0.0404355
0.0235965
0.00327855
-0.0187007
-0.0405132
-0.0604776
-0.0771939
-0.0896296
-0.0971793
-0.0991905
-0.0959009
-0.0879073
-0.0764167
-0.0624396
-0.0476441
-0.0636251
-0.0789502
-0.0901305
-0.0948705
-0.0923851
-0.0819879
-0.0643935
-0.0410245
-0.0146267
0.0125267
0.0380693
0.0597953
0.075858
0.0849427
0.0863634
0.0800968
0.0667439
0.0474509
0.0237856
-0.00240525
-0.0291579
-0.0545503
-0.0768585
-0.0946725
-0.107
-0.112704
-0.111738
-0.104543
-0.0924636
-0.0766528
-0.059127
-0.0534575
-0.0658649
-0.0743574
-0.0769006
-0.0727325
-0.061217
-0.0429343
-0.0191166
0.00778874
0.0356707
0.0622654
0.0853808
0.103085
0.113882
0.116828
0.1116
0.0985018
0.0784271
0.0527785
0.0233578
-0.00777682
-0.03847
-0.0666465
-0.0904632
-0.108462
-0.118935
-0.121474
-0.11628
-0.104742
-0.0881215
-0.0686918
-0.0456872
-0.0561039
-0.0629376
-0.0643545
-0.0595773
-0.0479476
-0.0298573
-0.00629638
0.0206302
0.0490269
0.0767756
0.101728
0.12188
0.135547
0.141501
0.139072
0.128199
0.109444
0.08395
0.0533783
0.0197825
-0.0145406
-0.047245
-0.0761175
-0.0992736
-0.114492
-0.120999
-0.118719
-0.108965
-0.0930176
-0.0732416
-0.0406671
-0.0501589
-0.0565405
-0.0581207
-0.0540852
-0.0436938
-0.0271107
-0.00504073
0.0207959
0.0487866
0.0770315
0.1035
0.126186
0.143274
0.153294
0.155242
0.14868
0.133782
0.111349
0.0827741
0.0499552
0.0151547
-0.0191928
-0.0506789
-0.0771448
-0.0960499
-0.106321
-0.107608
-0.100993
-0.0876513
-0.0698004
-0.0385793
-0.0482764
-0.0554826
-0.058605
-0.0567807
-0.0491442
-0.0356068
-0.016554
0.00671155
0.0329312
0.0605104
0.0876362
0.112405
0.132976
0.147724
0.155377
0.15514
0.14678
0.130674
0.10782
0.0797737
0.0485407
0.0163978
-0.0142997
-0.0413437
-0.0621604
-0.0754915
-0.0807384
-0.0785971
-0.0699793
-0.0566969
-0.0391834
-0.0500967
-0.0592466
-0.0651111
-0.0667761
-0.0632279
-0.0541195
-0.0395002
-0.0202452
0.00279476
0.0284056
0.0550882
0.0811538
0.104854
0.12452
0.138703
0.146305
0.146696
0.139784
0.126059
0.106572
0.0828529
0.0567732
0.0303777
0.00568155
-0.0150146
-0.0303954
-0.0396646
-0.0430045
-0.0409192
-0.0345889
-0.0416377
-0.054409
-0.066176
-0.0754803
-0.0813636
-0.082669
-0.0788111
-0.0695171
-0.0552569
-0.036459
-0.0139179
0.0112451
0.0376428
0.063722
0.0878785
0.108588
0.124536
0.134736
0.138632
0.13616
0.127759
0.114337
0.0971769
0.0778114
0.0578632
0.0391118
0.0228101
0.00989015
0.000739779
-0.00464906
-0.00668118
-0.0441947
-0.0587673
-0.0730108
-0.0855608
-0.0954422
-0.1014
-0.10267
-0.0987131
-0.0896598
-0.0755574
-0.0567998
-0.0341202
-0.00856333
0.0185821
0.0458707
0.071809
0.0949713
0.11412
0.128309
0.136966
0.13993
0.137458
0.130181
0.119028
0.105124
0.0896009
0.073556
0.0579795
0.0437789
0.0314345
0.0212703
-0.0449123
-0.0604185
-0.0761209
-0.0907715
-0.103429
-0.112824
-0.118105
-0.118574
-0.114117
-0.104498
-0.0897875
-0.0703778
-0.046982
-0.0205955
0.0075623
0.0361308
0.0637033
0.088934
0.11064
0.127884
0.140035
0.146803
0.148239
0.144708
0.136838
0.125135
0.110483
0.0938378
0.0764733
0.0592362
0.0430768
-0.0417074
-0.0564622
-0.071709
-0.0863775
-0.099627
-0.110315
-0.117609
-0.120788
-0.119622
-0.113733
-0.10299
-0.0875372
-0.0678107
-0.0445184
-0.0186077
0.00879106
0.0364356
0.0630575
0.0874498
0.108543
0.125472
0.137618
0.144652
0.146527
0.143479
0.135538
0.12334
0.107755
0.0901342
0.0714921
0.0531571
-0.0338235
-0.0459688
-0.0586725
-0.0710909
-0.0825731
-0.0921754
-0.0992695
-0.103232
-0.103822
-0.100663
-0.0935535
-0.0825006
-0.0677358
-0.0497116
-0.029086
-0.0066881
0.0165278
0.0395432
0.0613403
0.0809616
0.0975668
0.110478
0.119222
0.123553
0.123467
0.118748
0.10984
0.0973013
0.082392
0.0660256
0.0495865
-0.0228981
-0.0311573
-0.0398853
-0.0484645
-0.056495
-0.0633274
-0.0685507
-0.0717682
-0.0727964
-0.071359
-0.067289
-0.0605474
-0.051238
-0.0396091
-0.026048
-0.0110643
0.00473567
0.0206837
0.0360904
0.0502828
0.0626424
0.0726384
0.0798646
0.0840587
0.0851274
0.0828386
0.0773832
0.0691154
0.0589499
0.0474615
0.0359013
-0.0485376
-0.0596635
-0.0674207
-0.0695354
-0.0652173
-0.053506
-0.0348495
-0.0102854
0.0181525
0.0485868
0.0788911
0.106891
0.130535
0.148077
0.158204
0.160139
0.153693
0.13928
0.117882
0.0909893
0.0604784
0.0284776
-0.00281565
-0.0313056
-0.0551876
-0.0724382
-0.0822353
-0.0842728
-0.0796426
-0.0693534
-0.0556564
-0.0696099
-0.085988
-0.0972792
-0.100744
-0.0950947
-0.0790486
-0.0532231
-0.0189152
0.0209399
0.0636867
0.106311
0.145711
0.178947
0.203493
0.217437
0.219627
0.209758
0.188397
0.156947
0.117557
0.0729638
0.0262802
-0.0192616
-0.0605661
-0.0949567
-0.119289
-0.132504
-0.13423
-0.125934
-0.109185
-0.0872274
-0.0799433
-0.0990642
-0.112329
-0.116754
-0.110819
-0.0931438
-0.0641737
-0.0254105
0.0198405
0.0685535
0.117263
0.16236
0.200381
0.228312
0.243821
0.245457
0.232762
0.206328
0.167766
0.119623
0.0651914
0.00826974
-0.0471592
-0.0972481
-0.138642
-0.167294
-0.181805
-0.181911
-0.169335
-0.146098
-0.116318
-0.075994
-0.0947025
-0.108034
-0.113166
-0.108613
-0.0928887
-0.0663639
-0.0303356
0.0121935
0.0583981
0.104963
0.148357
0.185109
0.212108
0.226863
0.227714
0.213991
0.186108
0.145562
0.0948826
0.0374612
-0.0226958
-0.0813049
-0.134158
-0.177533
-0.206815
-0.220414
-0.217898
-0.201258
-0.172736
-0.137022
-0.0610266
-0.0767471
-0.0887978
-0.0947843
-0.0934165
-0.0832797
-0.0644262
-0.0376368
-0.00502296
0.0313243
0.0687992
0.10448
0.135348
0.158544
0.171618
0.172761
0.160998
0.136329
0.0997945
0.0534797
0.00039551
-0.055729
-0.11077
-0.160559
-0.201314
-0.228191
-0.239454
-0.23453
-0.215364
-0.184168
-0.145745
-0.0432401
-0.0556159
-0.066631
-0.0743773
-0.0777945
-0.0755392
-0.0672234
-0.0529005
-0.0334995
-0.0100953
0.0156989
0.0418284
0.0659339
0.08555
0.0983283
0.102281
0.0960118
0.0789224
0.0513457
0.0146284
-0.0289145
-0.0761473
-0.123394
-0.166771
-0.202616
-0.226102
-0.23534
-0.229514
-0.210315
-0.179688
-0.142189
-0.0308178
-0.0416946
-0.0533583
-0.0643685
-0.0737848
-0.0802498
-0.0828648
-0.0808914
-0.0741156
-0.0625891
-0.0469396
-0.0283738
-0.00862396
0.0101905
0.0257626
0.0358496
0.0385468
0.0325494
0.0173646
-0.00652869
-0.0376478
-0.0735852
-0.11124
-0.147117
-0.177748
-0.198484
-0.207245
-0.202889
-0.186662
-0.16007
-0.127097
-0.0303846
-0.0430377
-0.0579304
-0.0738098
-0.0896553
-0.103945
-0.115291
-0.122267
-0.123884
-0.11944
-0.108868
-0.0928096
-0.0726244
-0.0502896
-0.0282144
-0.00897642
0.00498561
0.0116834
0.00985373
-0.000819944
-0.0196104
-0.0447702
-0.0737165
-0.103306
-0.130235
-0.150093
-0.16057
-0.160159
-0.149561
-0.129762
-0.103995
-0.0439107
-0.0618621
-0.0824739
-0.104336
-0.126133
-0.146038
-0.162287
-0.173009
-0.176996
-0.173233
-0.161405
-0.142009
-0.116375
-0.0865839
-0.0552804
-0.0253955
0.000178268
0.0189282
0.0290307
0.0296063
0.0208531
0.00405615
-0.018567
-0.0441216
-0.0694148
-0.0902953
-0.104247
-0.109429
-0.105994
-0.0944347
-0.0771731
-0.0690697
-0.0949333
-0.122811
-0.150814
-0.177183
-0.199712
-0.21645
-0.225414
-0.225777
-0.216697
-0.19809
-0.170726
-0.136228
-0.096969
-0.0558778
-0.0161552
0.019049
0.0469759
0.0655657
0.0737085
0.0713782
0.0596474
0.0405451
0.0168153
-0.00843853
-0.031353
-0.0493069
-0.0602544
-0.0638969
-0.0603449
-0.0512676
-0.100095
-0.134741
-0.169924
-0.203068
-0.231947
-0.253996
-0.267316
-0.270159
-0.26257
-0.244293
-0.21586
-0.178613
-0.134657
-0.086719
-0.0379371
0.00841452
0.0492182
0.081818
0.104287
0.115636
0.115912
0.106194
0.0884524
0.0653122
0.0397368
0.01523
-0.00566825
-0.0209107
-0.0299189
-0.0325892
-0.0299755
-0.129863
-0.172185
-0.213137
-0.249421
-0.27844
-0.297395
-0.304681
-0.299078
-0.28178
-0.253374
-0.215207
-0.169312
-0.118295
-0.0651415
-0.0130078
0.0350328
0.0762239
0.108363
0.129994
0.14054
0.140344
0.130624
0.113328
0.0909104
0.0660673
0.0418206
0.0203919
0.00359141
-0.00792914
-0.0140287
-0.0153218
-0.152143
-0.199443
-0.243466
-0.28032
-0.307229
-0.321358
-0.321581
-0.307394
-0.281181
-0.244436
-0.199325
-0.148504
-0.0949365
-0.0416666
0.00838941
0.0526467
0.0890077
0.116006
0.132896
0.139699
0.137163
0.126677
0.110118
0.0896594
0.0675579
0.0462119
0.027297
0.0121675
0.00135077
-0.0051222
-0.00760546
-0.163208
-0.211989
-0.255924
-0.290771
-0.313801
-0.322354
-0.315893
-0.294682
-0.262129
-0.220532
-0.172719
-0.121771
-0.0707835
-0.0226145
0.0202997
0.0560883
0.0835104
0.101993
0.111614
0.113047
0.107452
0.0963439
0.0814422
0.064515
0.0472367
0.0312748
0.0176036
0.00697662
-0.000357527
-0.00457349
-0.00592778
-0.162426
-0.209278
-0.250231
-0.280979
-0.299035
-0.302088
-0.290202
-0.264342
-0.228638
-0.185983
-0.139628
-0.092837
-0.0486087
-0.0094219
0.0229168
0.047351
0.0635492
0.0718422
0.0731073
0.0686221
0.0598932
0.0484938
0.0359196
0.0234741
0.0121947
0.00300958
-0.00384067
-0.00824072
-0.0103149
-0.0104863
-0.00905998
-0.151779
-0.194073
-0.229934
-0.255259
-0.26792
-0.266054
-0.250244
-0.222
-0.185836
-0.144994
-0.102904
-0.0628094
-0.0274622
0.00111944
0.0217684
0.0341891
0.0388586
0.0368846
0.0298105
0.0194024
0.00743289
-0.00450286
-0.0151212
-0.0235297
-0.0292454
-0.0319444
-0.0320134
-0.029898
-0.0261301
-0.0213887
-0.0161653
-0.134719
-0.170929
-0.200585
-0.219968
-0.227337
-0.221286
-0.202777
-0.173659
-0.138525
-0.100743
-0.0637462
-0.0306364
-0.00388701
0.0148899
0.0250322
0.0268096
0.0212812
0.0101037
-0.00470955
-0.0210398
-0.0369058
-0.050658
-0.0611098
-0.0675967
-0.0699665
-0.0682157
-0.0631325
-0.0555544
-0.0464077
-0.036623
-0.0270145
-0.114896
-0.144573
-0.167827
-0.181414
-0.183922
-0.174342
-0.153839
-0.124399
-0.0904591
-0.055355
-0.0224215
0.00539499
0.0258249
0.0374952
0.0400071
0.0339073
0.0205363
0.00182456
-0.019959
-0.0424671
-0.0635243
-0.0813273
-0.0945846
-0.102579
-0.105166
-0.102271
-0.0947912
-0.0837361
-0.0703793
-0.0559021
-0.0415688
-0.0952583
-0.118773
-0.136117
-0.144519
-0.142799
-0.130229
-0.108008
-0.0780823
-0.0445793
-0.0107058
0.020333
0.0456929
0.063167
0.0713996
0.0699727
0.0593957
0.0409784
0.0166525
-0.0112582
-0.0402792
-0.0680274
-0.0924167
-0.11182
-0.125159
-0.131949
-0.131637
-0.124931
-0.11279
-0.0967609
-0.0782757
-0.0591406
-0.0777436
-0.0959912
-0.108378
-0.112541
-0.107421
-0.0924397
-0.0686859
-0.0379265
-0.00389002
0.030407
0.0618879
0.0877394
0.105675
0.11415
0.112476
0.10085
0.0802816
0.0524695
0.0196182
-0.0157613
-0.051076
-0.0838594
-0.111967
-0.133718
-0.148003
-0.15347
-0.150398
-0.139509
-0.12252
-0.101095
-0.0775958
-0.0634681
-0.0776646
-0.0863776
-0.0875581
-0.0801717
-0.0636593
-0.0388882
-0.00734683
0.0276976
0.0634707
0.0970349
0.125571
0.146628
0.158341
0.159586
0.150059
0.130279
0.101528
0.0657429
0.025364
-0.0168593
-0.058078
-0.0955742
-0.12696
-0.15037
-0.163504
-0.166076
-0.158444
-0.142354
-0.119631
-0.093096
-0.0531101
-0.0647097
-0.0713277
-0.0711247
-0.0630251
-0.046378
-0.0217455
0.00973807
0.0453188
0.0825327
0.118633
0.150826
0.176499
0.193446
0.200052
0.195433
0.17951
0.153027
0.117513
0.0751941
0.0288361
-0.0184602
-0.063514
-0.103316
-0.13529
-0.156278
-0.165403
-0.162593
-0.149442
-0.127804
-0.100717
-0.0471596
-0.0578167
-0.0641766
-0.0645161
-0.0576774
-0.0428298
-0.0201721
0.00957862
0.0442298
0.0817194
0.119589
0.155171
0.185785
0.208965
0.222662
0.225433
0.216573
0.196213
0.165345
0.1258
0.0801319
0.0314332
-0.016923
-0.0615656
-0.0994359
-0.126821
-0.142336
-0.145461
-0.137435
-0.119931
-0.0958525
-0.0458231
-0.0572738
-0.0653098
-0.0682529
-0.0648419
-0.0540065
-0.0355454
-0.00971044
0.0219034
0.0577339
0.0957346
0.133505
0.168457
0.198017
0.219838
0.232012
0.233255
0.223051
0.201747
0.170581
0.131622
0.0876185
0.0417626
-0.0025902
-0.0422423
-0.0733814
-0.0942632
-0.103952
-0.103122
-0.0930278
-0.0760329
-0.0486601
-0.0624455
-0.0738487
-0.0811933
-0.0831111
-0.078266
-0.0660519
-0.0462316
-0.0197989
0.0122585
0.0484155
0.0866848
0.124737
0.160074
0.190225
0.212968
0.226528
0.229768
0.222322
0.20468
0.178172
0.144875
0.107421
0.0687525
0.0318322
8.18514e-05
-0.0245745
-0.040849
-0.0486965
-0.0487362
-0.0424266
-0.054307
-0.0713935
-0.087175
-0.0999659
-0.108306
-0.110612
-0.105906
-0.0934843
-0.0737817
-0.0471918
-0.0146605
0.0223372
0.0618684
0.101674
0.139338
0.172486
0.19899
0.217173
0.22597
0.22505
0.214855
0.196558
0.171948
0.143242
0.112852
0.0834118
0.0568482
0.0347107
0.0178192
0.00631762
-0.0001126
-0.060052
-0.0803273
-0.100261
-0.1182
-0.132638
-0.141825
-0.144501
-0.13959
-0.127067
-0.106795
-0.0791686
-0.0451279
-0.00613911
0.035896
0.0787672
0.120126
0.157671
0.189346
0.213514
0.229102
0.235674
0.233458
0.223294
0.206525
0.184841
0.159883
0.133428
0.10716
0.0825854
0.0605862
0.0419441
-0.0629546
-0.085118
-0.107679
-0.129066
-0.147812
-0.162121
-0.170605
-0.171969
-0.165876
-0.151803
-0.129699
-0.100038
-0.0638224
-0.0225431
0.0219109
0.0673829
0.111603
0.152363
0.187689
0.215982
0.236125
0.24755
0.250249
0.244736
0.231968
0.212623
0.188217
0.160409
0.131173
0.101939
0.0744148
-0.0597411
-0.0812327
-0.103513
-0.125201
-0.144984
-0.16124
-0.172606
-0.17779
-0.176328
-0.167517
-0.151046
-0.127049
-0.0961408
-0.0593963
-0.0183027
0.0253339
0.0695046
0.112139
0.151254
0.185078
0.212167
0.231489
0.242477
0.24504
0.239549
0.225955
0.205421
0.179496
0.150191
0.119175
0.0886415
-0.0493462
-0.0673387
-0.0861819
-0.104779
-0.122098
-0.136781
-0.147791
-0.154021
-0.155028
-0.150146
-0.138989
-0.121513
-0.0980457
-0.069287
-0.036287
-0.000387233
0.0368564
0.0737754
0.108699
0.140054
0.16646
0.186811
0.200345
0.206672
0.205801
0.19732
0.182092
0.161145
0.136354
0.10922
0.0819341
-0.034082
-0.0465642
-0.0597366
-0.0728123
-0.0851247
-0.0957076
-0.103877
-0.108925
-0.110516
-0.108165
-0.101567
-0.0906285
-0.0754986
-0.0565739
-0.0344889
-0.0100874
0.0156226
0.0415289
0.0664857
0.0893773
0.109184
0.12504
0.136292
0.14253
0.143624
0.139173
0.129585
0.115511
0.0983629
0.0791436
0.0597238
-0.0762828
-0.0951917
-0.109737
-0.116756
-0.115057
-0.103274
-0.0818176
-0.0520007
-0.0165833
0.0220058
0.0610133
0.0976277
0.129205
0.153501
0.168833
0.174204
0.169356
0.15478
0.131664
0.101803
0.0674563
0.0311633
-0.0044665
-0.0369616
-0.0642038
-0.0838509
-0.0948902
-0.0971229
-0.0917159
-0.0798395
-0.064016
-0.10769
-0.134804
-0.155416
-0.165677
-0.163713
-0.147766
-0.118373
-0.0771287
-0.0279923
0.0256356
0.079894
0.130819
0.174664
0.20823
0.229098
0.235817
0.227986
0.206278
0.172376
0.128854
0.0789684
0.0264033
-0.0250396
-0.0717445
-0.1106
-0.138
-0.152626
-0.154309
-0.144587
-0.125267
-0.100013
-0.122134
-0.15319
-0.176865
-0.189001
-0.187405
-0.170229
-0.13771
-0.0917004
-0.0366102
0.0237313
0.0849398
0.142462
0.191949
0.229629
0.252603
0.259071
0.248454
0.221446
0.179962
0.127015
0.066489
0.00283186
-0.0593146
-0.115495
-0.161843
-0.193743
-0.209461
-0.209029
-0.19424
-0.167436
-0.133254
-0.113901
-0.143542
-0.166569
-0.179097
-0.179043
-0.164442
-0.135472
-0.0937017
-0.0430608
0.0129482
0.0702176
0.124384
0.171179
0.206793
0.228185
0.233341
0.221433
0.192925
0.149557
0.0942699
0.0309988
-0.0356299
-0.100686
-0.159348
-0.207365
-0.239501
-0.253787
-0.250117
-0.230546
-0.197649
-0.15673
-0.0876109
-0.111331
-0.130738
-0.142708
-0.145518
-0.137364
-0.118077
-0.0885503
-0.0514265
-0.00918372
0.0350806
0.0778925
0.115664
0.145002
0.162997
0.167488
0.157289
0.132338
0.0937774
0.0439456
-0.0137544
-0.0751039
-0.135431
-0.190016
-0.234577
-0.263637
-0.275046
-0.268538
-0.246087
-0.210204
-0.166317
-0.0553362
-0.0719167
-0.0872429
-0.0990858
-0.106153
-0.106828
-0.100458
-0.0869967
-0.0674002
-0.0427588
-0.014795
0.0142358
0.0416943
0.0647787
0.0807784
0.0873529
0.082804
0.0663144
0.0381157
-0.00040967
-0.0467657
-0.0975083
-0.148551
-0.195548
-0.234372
-0.259571
-0.268789
-0.261447
-0.239199
-0.204215
-0.161624
-0.029074
-0.0405461
-0.0536157
-0.0669259
-0.0794825
-0.0897659
-0.0965397
-0.0987503
-0.0957119
-0.0871258
-0.0733559
-0.0554735
-0.035223
-0.0148861
0.00293823
0.0156233
0.0208427
0.0168893
0.00294395
-0.0207161
-0.052651
-0.0903337
-0.130391
-0.168947
-0.202093
-0.224564
-0.23375
-0.228614
-0.210287
-0.180391
-0.143387
-0.0190513
-0.0298153
-0.0441158
-0.0610744
-0.0797195
-0.0984486
-0.115437
-0.128769
-0.136618
-0.137659
-0.131291
-0.117789
-0.09835
-0.0750167
-0.050477
-0.0277574
-0.00984848
0.000683059
0.00204687
-0.00647763
-0.0243897
-0.0499681
-0.0804579
-0.112381
-0.14199
-0.164258
-0.176272
-0.176466
-0.165341
-0.14388
-0.11567
-0.0288781
-0.043989
-0.0632284
-0.0856909
-0.110122
-0.134657
-0.156989
-0.174665
-0.185473
-0.187648
-0.180227
-0.163249
-0.137833
-0.106118
-0.0710674
-0.0361399
-0.00489084
0.0194586
0.034422
0.0385873
0.0318161
0.0152865
-0.0086589
-0.0368011
-0.0654804
-0.0899303
-0.106965
-0.114527
-0.112491
-0.101238
-0.0834073
-0.0560439
-0.0795607
-0.106407
-0.135169
-0.164083
-0.190922
-0.2131
-0.228062
-0.234029
-0.229438
-0.213604
-0.186889
-0.150763
-0.107721
-0.061074
-0.0146095
0.0278034
0.0626476
0.0871581
0.0996575
0.0997576
0.0884073
0.0677549
0.040873
0.0113498
-0.0163624
-0.0389451
-0.0540199
-0.0609518
-0.0596588
-0.0518908
-0.0930094
-0.126747
-0.161935
-0.196326
-0.227587
-0.25314
-0.270406
-0.277174
-0.272763
-0.256363
-0.228064
-0.188955
-0.14111
-0.0874612
-0.0315695
0.0226992
0.0715372
0.11158
0.140254
0.15606
0.158726
0.149234
0.129675
0.102992
0.0726073
0.042532
0.0159639
-0.00467359
-0.0184366
-0.0249816
-0.0253133
-0.130074
-0.173179
-0.215299
-0.253275
-0.284311
-0.305618
-0.314924
-0.310736
-0.293849
-0.264535
-0.223923
-0.173977
-0.117393
-0.0574158
0.00239489
0.058457
0.10745
0.146612
0.173988
0.188614
0.190598
0.181092
0.162144
0.136462
0.107102
0.0774305
0.0502055
0.0275686
0.0105355
-0.000498479
-0.00597417
-0.15854
-0.207929
-0.253914
-0.292569
-0.32088
-0.336071
-0.336429
-0.321407
-0.293331
-0.253631
-0.204469
-0.148586
-0.0891053
-0.0293123
0.0275791
0.0786484
0.121449
0.154179
0.175803
0.186109
0.185699
0.175902
0.158625
0.136152
0.110921
0.0854261
0.0616791
0.0412389
0.0249671
0.0131405
0.00569752
-0.173017
-0.224417
-0.270447
-0.306741
-0.330351
-0.338762
-0.330977
-0.307452
-0.271815
-0.226505
-0.174504
-0.119055
-0.0634052
-0.0105494
0.0369632
0.0771701
0.108753
0.13107
0.144133
0.148538
0.145362
0.136023
0.122143
0.105397
0.0873913
0.0695772
0.0530108
0.0384675
0.0264789
0.0170954
0.0104617
-0.172331
-0.221467
-0.263958
-0.295374
-0.313095
-0.315058
-0.301022
-0.272335
-0.233526
-0.187759
-0.138508
-0.089196
-0.042884
-0.00202021
0.0317086
0.0574276
0.0750111
0.0849807
0.088352
0.0864531
0.0807352
0.0726033
0.0632921
0.0537772
0.0447496
0.0365978
0.0293791
0.023028
0.0176386
0.0129863
0.00925454
-0.158934
-0.202483
-0.238806
-0.263759
-0.275197
-0.271617
-0.253447
-0.222705
-0.184368
-0.141994
-0.0992345
-0.0594157
-0.0252198
0.00155588
0.0200946
0.0305313
0.0337932
0.0313911
0.0251647
0.0170162
0.00866436
0.0014542
-0.00374873
-0.00659289
-0.00718663
-0.00601737
-0.00387964
-0.0015858
0.000481197
0.00180837
0.0024378
-0.137356
-0.173413
-0.202205
-0.220108
-0.22548
-0.217374
-0.19671
-0.165899
-0.129965
-0.092574
-0.0573176
-0.0272847
-0.00474326
0.00907549
0.0140346
0.0110106
0.00167516
-0.0117762
-0.026938
-0.0415079
-0.053563
-0.0617602
-0.0654313
-0.0645871
-0.0598205
-0.0520911
-0.0427352
-0.0330958
-0.0240186
-0.0163125
-0.010277
-0.112464
-0.140524
-0.1616
-0.172686
-0.172567
-0.160749
-0.138426
-0.108129
-0.0746306
-0.0415066
-0.0121728
0.0105236
0.0246074
0.0291733
0.0244269
0.0115904
-0.00732589
-0.0298077
-0.0531615
-0.074835
-0.092699
-0.105253
-0.111729
-0.112098
-0.106978
-0.0972462
-0.0843743
-0.0699526
-0.0552357
-0.0413455
-0.02913
-0.0882
-0.108828
-0.122878
-0.127946
-0.123093
-0.108127
-0.0842938
-0.0540105
-0.0216188
0.0095087
0.0361485
0.0555984
0.0659631
0.0663443
0.0568947
0.0387503
0.0138385
-0.0153685
-0.0461451
-0.0758041
-0.101966
-0.122768
-0.136999
-0.144145
-0.144356
-0.137844
-0.1258
-0.109771
-0.0913337
-0.0719424
-0.0531617
-0.0671296
-0.0815595
-0.089849
-0.0900844
-0.0814484
-0.0638679
-0.03845
-0.0073286
0.0256834
0.0574714
0.0849748
0.105512
0.117049
0.118395
0.109294
0.0904146
0.0632394
0.0298895
-0.00709617
-0.0449956
-0.0811458
-0.113161
-0.139108
-0.157628
-0.167999
-0.169301
-0.162104
-0.147667
-0.127762
-0.104166
-0.0792261
-0.0506845
-0.0605521
-0.0647499
-0.0617041
-0.0505835
-0.0312647
-0.00456817
0.027776
0.0625355
0.0968962
0.127945
0.152941
0.16957
0.176148
0.171771
0.156383
0.130758
0.0964317
0.0555709
0.0108111
-0.034947
-0.0787586
-0.117865
-0.149894
-0.173043
-0.185042
-0.185642
-0.17563
-0.156802
-0.13118
-0.101793
-0.0396879
-0.04692
-0.0490581
-0.0447133
-0.0329437
-0.0134322
0.0133951
0.0462973
0.0826629
0.120043
0.155712
0.186885
0.210944
0.225665
0.22941
0.221281
0.201206
0.169979
0.129221
0.0813103
0.0292211
-0.0236931
-0.0739689
-0.118312
-0.153884
-0.177164
-0.187047
-0.183735
-0.168833
-0.144424
-0.11393
-0.0347125
-0.0414865
-0.0439305
-0.040705
-0.0306981
-0.0132881
0.0115678
0.0431845
0.0796104
0.11886
0.158503
0.195819
0.227998
0.252367
0.266622
0.26905
0.258703
0.235539
0.200478
0.155414
0.103109
0.0469965
-0.00910038
-0.0612977
-0.106014
-0.138878
-0.158039
-0.163069
-0.155123
-0.136077
-0.109278
-0.035974
-0.0445728
-0.0498303
-0.0503532
-0.04483
-0.032263
-0.0120938
0.0155965
0.0495442
0.088341
0.129997
0.172035
0.211649
0.245918
0.272053
0.287658
0.290975
0.281095
0.258105
0.223166
0.178473
0.127103
0.0727495
0.0193868
-0.0291156
-0.068149
-0.0953298
-0.109602
-0.111431
-0.102157
-0.0845085
-0.0428545
-0.0553136
-0.0655991
-0.072204
-0.0736121
-0.068423
-0.0555571
-0.0344745
-0.00575768
0.0298503
0.0709383
0.115458
0.160832
0.204136
0.242333
0.272551
0.292355
0.300014
0.294702
0.276648
0.247151
0.208495
0.163737
0.116412
0.0701705
0.0291967
-0.00385173
-0.0273521
-0.0408953
-0.0449994
-0.0412666
-0.053516
-0.071124
-0.0877853
-0.101865
-0.111664
-0.11541
-0.111547
-0.0989533
-0.0775909
-0.0475142
-0.00947913
0.0350296
0.0838522
0.134287
0.183297
0.227764
0.264769
0.291877
0.307377
0.310474
0.301368
0.281242
0.25213
0.216695
0.177945
0.139094
0.102813
0.0711867
0.045555
0.0263933
0.0135524
-0.0643395
-0.0869608
-0.109731
-0.130938
-0.148769
-0.161187
-0.166285
-0.162482
-0.149255
-0.126051
-0.0930011
-0.0509884
-0.00165172
0.0527004
0.109247
0.164872
0.216425
0.260989
0.296143
0.32017
0.332188
0.332209
0.321096
0.300433
0.272332
0.238754
0.202166
0.164934
0.129208
0.0964199
0.0678497
-0.0714164
-0.097379
-0.124307
-0.150489
-0.174113
-0.19304
-0.205212
-0.208797
-0.20297
-0.186753
-0.159785
-0.12242
-0.0757696
-0.021663
0.0374592
0.0987162
0.159
0.215222
0.264557
0.304652
0.333789
0.350996
0.356082
0.34959
0.332711
0.306181
0.272099
0.232879
0.191202
0.149205
0.109353
-0.0703667
-0.0963316
-0.12363
-0.150724
-0.175954
-0.197359
-0.212945
-0.220918
-0.220381
-0.210198
-0.189741
-0.158999
-0.118636
-0.0699841
-0.0149853
0.0439329
0.104018
0.162389
0.216253
0.263081
0.30078
0.32782
0.343322
0.347077
0.339529
0.32049
0.291571
0.25508
0.213687
0.169812
0.126478
-0.0595668
-0.0817616
-0.105256
-0.128795
-0.151066
-0.17041
-0.185294
-0.19419
-0.196323
-0.190665
-0.176565
-0.153837
-0.12282
-0.0843938
-0.0399423
0.00871745
0.0594458
0.109924
0.157811
0.200886
0.237193
0.265152
0.283665
0.29216
0.290625
0.278429
0.256772
0.227241
0.19231
0.154115
0.115627
-0.0419711
-0.0576475
-0.0743174
-0.0910774
-0.107062
-0.121073
-0.132094
-0.139139
-0.141645
-0.138882
-0.130356
-0.115869
-0.0955705
-0.0699638
-0.0398994
-0.00653423
0.0287319
0.0643434
0.098689